
     Program DOS v.7.3 starts on 11Feb2026 at 16:25:58 

     This program is part of the open-source Quantum ESPRESSO suite
     for quantum simulation of materials; please cite
         "P. Giannozzi et al., J. Phys.:Condens. Matter 21 395502 (2009);
         "P. Giannozzi et al., J. Phys.:Condens. Matter 29 465901 (2017);
         "P. Giannozzi et al., J. Chem. Phys. 152 154105 (2020);
          URL http://www.quantum-espresso.org", 
     in publications or presentations arising from this work. More details at
     http://www.quantum-espresso.org/quote

     Parallel version (MPI), running on     2 processors

     MPI processes distributed on     1 nodes
     R & G space division:  proc/nbgrp/npool/nimage =       2
     160165 MiB available memory on the printing compute node when the environment starts
 

     Reading xml data from directory:

     ./graphene.save/

     IMPORTANT: XC functional enforced from input :
     Exchange-correlation= PBE
                           (   1   4   3   4   0   0   0)
     Any further DFT definition will be discarded
     Please, verify this is what you really want

 
     Parallelization info
     --------------------
     sticks:   dense  smooth     PW     G-vecs:    dense   smooth      PW
     Min         297     120     42                47882    12120    2286
     Max         298     121     43                47885    12141    2289
     Sum         595     241     85                95767    24261    4575
 
     Using Slab Decomposition
 

     negative rho (up, down):  1.407E-05 1.408E-05

     Tetrahedra used

 
     DOS          :      4.10s CPU      4.66s WALL

 
   This run was terminated on:  16:26: 3  11Feb2026            

=------------------------------------------------------------------------------=
   JOB DONE.
=------------------------------------------------------------------------------=
