
     Program PROJWFC v.7.3 starts on 11Feb2026 at 17:21:47 

     This program is part of the open-source Quantum ESPRESSO suite
     for quantum simulation of materials; please cite
         "P. Giannozzi et al., J. Phys.:Condens. Matter 21 395502 (2009);
         "P. Giannozzi et al., J. Phys.:Condens. Matter 29 465901 (2017);
         "P. Giannozzi et al., J. Chem. Phys. 152 154105 (2020);
          URL http://www.quantum-espresso.org", 
     in publications or presentations arising from this work. More details at
     http://www.quantum-espresso.org/quote

     Parallel version (MPI), running on     1 processors

     MPI processes distributed on     1 nodes
     627 MiB available memory on the printing compute node when the environment starts
 

     Reading xml data from directory:

     ./graphene.save/

     IMPORTANT: XC functional enforced from input :
     Exchange-correlation= PBE
                           (   1   4   3   4   0   0   0)
     Any further DFT definition will be discarded
     Please, verify this is what you really want

 
     G-vector sticks info
     --------------------
     sticks:   dense  smooth     PW     G-vecs:    dense   smooth      PW
     Sum         595     241     85                95767    24261    4575
 
     Using Slab Decomposition
 

     negative rho (up, down):  1.407E-05 1.408E-05

     Linear tetrahedron method (read from file) 
     [opt_tetra]  Linear tetrahedron method is used.

     Calling projwave .... 
     Subspace diagonalization in iterative solution of the eigenvalue problem:
     a serial algorithm will be used

 
  Problem Sizes 
  natomwfc =            8
  nbnd     =            8
  nkstot   =          314
  npwx     =         3055
  nkb      =           16
 

     Atomic states used for projection
     (read from pseudopotential files):

     state #   1: atom   1 (C  ), wfc  1 (l=0 m= 1)
     state #   2: atom   1 (C  ), wfc  2 (l=1 m= 1)
     state #   3: atom   1 (C  ), wfc  2 (l=1 m= 2)
     state #   4: atom   1 (C  ), wfc  2 (l=1 m= 3)
     state #   5: atom   2 (C  ), wfc  1 (l=0 m= 1)
     state #   6: atom   2 (C  ), wfc  2 (l=1 m= 1)
     state #   7: atom   2 (C  ), wfc  2 (l=1 m= 2)
     state #   8: atom   2 (C  ), wfc  2 (l=1 m= 3)

 k =   0.0000000000  0.0000000000  0.0000000000
==== e(   1) =   -21.88682 eV ==== 
     psi = 0.492*[#   1]+0.492*[#   5]
    |psi|^2 = 0.983
==== e(   2) =    -9.98570 eV ==== 
     psi = 0.473*[#   2]+0.473*[#   6]
    |psi|^2 = 0.945
==== e(   3) =    -5.41769 eV ==== 
     psi = 0.342*[#   3]+0.342*[#   7]+0.157*[#   4]+0.157*[#   8]
    |psi|^2 = 0.997
==== e(   4) =    -5.41753 eV ==== 
     psi = 0.342*[#   4]+0.342*[#   8]+0.157*[#   3]+0.157*[#   7]
    |psi|^2 = 0.997
==== e(   5) =     0.86266 eV ==== 
     psi = 0.003*[#   1]+0.003*[#   5]
    |psi|^2 = 0.007
==== e(   6) =     1.55063 eV ==== 
     psi = 0.009*[#   2]+0.009*[#   6]
    |psi|^2 = 0.017
==== e(   7) =     1.68490 eV ==== 
 
    |psi|^2 = 0.001
==== e(   8) =     2.68822 eV ==== 
     psi = 0.007*[#   2]+0.007*[#   6]
    |psi|^2 = 0.014

 k =   0.0000000000  0.0481125224  0.0000000000
==== e(   1) =   -21.84579 eV ==== 
     psi = 0.484*[#   1]+0.484*[#   5]+0.005*[#   4]+0.005*[#   8]+0.003*[#   3]
          +0.003*[#   7]
    |psi|^2 = 0.983
==== e(   2) =    -9.93652 eV ==== 
     psi = 0.473*[#   2]+0.473*[#   6]
    |psi|^2 = 0.947
==== e(   3) =    -5.58634 eV ==== 
     psi = 0.309*[#   4]+0.309*[#   8]+0.186*[#   3]+0.186*[#   7]+0.004*[#   1]
          +0.004*[#   5]
    |psi|^2 = 0.997
==== e(   4) =    -5.50693 eV ==== 
     psi = 0.311*[#   3]+0.311*[#   7]+0.187*[#   4]+0.187*[#   8]
    |psi|^2 = 0.997
==== e(   5) =     0.91858 eV ==== 
     psi = 0.003*[#   1]+0.003*[#   5]+0.002*[#   4]+0.002*[#   8]
    |psi|^2 = 0.010
==== e(   6) =     1.60738 eV ==== 
     psi = 0.009*[#   2]+0.009*[#   6]
    |psi|^2 = 0.017
==== e(   7) =     1.74218 eV ==== 
 
    |psi|^2 = 0.001
==== e(   8) =     2.74503 eV ==== 
     psi = 0.007*[#   2]+0.007*[#   6]
    |psi|^2 = 0.014

 k =   0.0000000000  0.0962250449  0.0000000000
==== e(   1) =   -21.72279 eV ==== 
     psi = 0.464*[#   1]+0.464*[#   5]+0.017*[#   4]+0.017*[#   8]+0.010*[#   3]
          +0.010*[#   7]
    |psi|^2 = 0.983
==== e(   2) =    -9.78928 eV ==== 
     psi = 0.475*[#   2]+0.475*[#   6]
    |psi|^2 = 0.950
==== e(   3) =    -6.06680 eV ==== 
     psi = 0.301*[#   4]+0.301*[#   8]+0.181*[#   3]+0.181*[#   7]+0.017*[#   1]
          +0.017*[#   5]
    |psi|^2 = 0.997
==== e(   4) =    -5.75644 eV ==== 
     psi = 0.312*[#   3]+0.311*[#   7]+0.187*[#   4]+0.187*[#   8]
    |psi|^2 = 0.997
==== e(   5) =     1.08640 eV ==== 
     psi = 0.005*[#   4]+0.005*[#   8]+0.003*[#   3]+0.003*[#   7]+0.001*[#   1]
          +0.001*[#   5]
    |psi|^2 = 0.019
==== e(   6) =     1.77763 eV ==== 
     psi = 0.008*[#   2]+0.008*[#   6]
    |psi|^2 = 0.016
==== e(   7) =     1.91341 eV ==== 
 
    |psi|^2 = 0.002
==== e(   8) =     2.91426 eV ==== 
     psi = 0.007*[#   2]+0.007*[#   6]
    |psi|^2 = 0.013

 k =   0.0000000000  0.1443375673  0.0000000000
==== e(   1) =   -21.51812 eV ==== 
     psi = 0.436*[#   1]+0.436*[#   5]+0.035*[#   4]+0.035*[#   8]+0.021*[#   3]
          +0.021*[#   7]
    |psi|^2 = 0.982
==== e(   2) =    -9.54495 eV ==== 
     psi = 0.478*[#   2]+0.478*[#   6]
    |psi|^2 = 0.956
==== e(   3) =    -6.79631 eV ==== 
     psi = 0.290*[#   4]+0.290*[#   8]+0.174*[#   3]+0.174*[#   7]+0.034*[#   1]
          +0.034*[#   5]
    |psi|^2 = 0.996
==== e(   4) =    -6.12129 eV ==== 
     psi = 0.312*[#   3]+0.312*[#   7]+0.187*[#   4]+0.187*[#   8]
    |psi|^2 = 0.997
==== e(   5) =     1.36611 eV ==== 
     psi = 0.009*[#   4]+0.009*[#   8]+0.005*[#   3]+0.005*[#   7]
    |psi|^2 = 0.028
==== e(   6) =     2.06119 eV ==== 
     psi = 0.007*[#   2]+0.007*[#   6]
    |psi|^2 = 0.014
==== e(   7) =     2.19920 eV ==== 
 
    |psi|^2 = 0.003
==== e(   8) =     3.19736 eV ==== 
     psi = 0.006*[#   2]+0.006*[#   6]
    |psi|^2 = 0.012

 k =   0.0000000000  0.1924500897  0.0000000000
==== e(   1) =   -21.23241 eV ==== 
     psi = 0.405*[#   1]+0.405*[#   5]+0.054*[#   4]+0.054*[#   8]+0.032*[#   3]
          +0.032*[#   7]
    |psi|^2 = 0.982
==== e(   2) =    -9.20528 eV ==== 
     psi = 0.481*[#   2]+0.481*[#   6]
    |psi|^2 = 0.963
==== e(   3) =    -7.70210 eV ==== 
     psi = 0.277*[#   4]+0.277*[#   8]+0.166*[#   3]+0.166*[#   7]+0.054*[#   1]
          +0.054*[#   5]
    |psi|^2 = 0.994
==== e(   4) =    -6.54990 eV ==== 
     psi = 0.312*[#   3]+0.312*[#   7]+0.187*[#   4]+0.187*[#   8]
    |psi|^2 = 0.997
==== e(   5) =     1.75757 eV ==== 
     psi = 0.011*[#   4]+0.011*[#   8]+0.007*[#   3]+0.007*[#   7]
    |psi|^2 = 0.035
==== e(   6) =     2.45758 eV ==== 
     psi = 0.006*[#   2]+0.006*[#   6]
    |psi|^2 = 0.012
==== e(   7) =     2.59955 eV ==== 
 
    |psi|^2 = 0.003
==== e(   8) =     3.59251 eV ==== 
     psi = 0.005*[#   2]+0.005*[#   6]
    |psi|^2 = 0.010

 k =   0.0000000000  0.2405626122  0.0000000000
==== e(   1) =   -20.86644 eV ==== 
     psi = 0.375*[#   1]+0.375*[#   5]+0.072*[#   4]+0.072*[#   8]+0.043*[#   3]
          +0.043*[#   7]
    |psi|^2 = 0.981
==== e(   2) =    -8.77311 eV ==== 
     psi = 0.485*[#   2]+0.485*[#   6]
    |psi|^2 = 0.971
==== e(   3) =    -8.71977 eV ==== 
     psi = 0.264*[#   4]+0.264*[#   8]+0.158*[#   3]+0.158*[#   7]+0.074*[#   1]
          +0.074*[#   5]
    |psi|^2 = 0.993
==== e(   4) =    -6.99772 eV ==== 
     psi = 0.312*[#   3]+0.312*[#   7]+0.187*[#   4]+0.187*[#   8]
    |psi|^2 = 0.997
==== e(   5) =     2.26046 eV ==== 
     psi = 0.011*[#   4]+0.011*[#   8]+0.007*[#   3]+0.007*[#   7]
    |psi|^2 = 0.036
==== e(   6) =     2.96580 eV ==== 
     psi = 0.005*[#   2]+0.005*[#   6]
    |psi|^2 = 0.010
==== e(   7) =     3.11376 eV ==== 
 
    |psi|^2 = 0.003
==== e(   8) =     4.09868 eV ==== 
     psi = 0.005*[#   2]+0.005*[#   6]
    |psi|^2 = 0.010

 k =   0.0000000000  0.2886751346  0.0000000000
==== e(   1) =   -20.42143 eV ==== 
     psi = 0.347*[#   1]+0.347*[#   5]+0.089*[#   4]+0.089*[#   8]+0.054*[#   3]
          +0.054*[#   7]
    |psi|^2 = 0.981
==== e(   2) =    -9.79904 eV ==== 
     psi = 0.251*[#   4]+0.251*[#   8]+0.151*[#   3]+0.151*[#   7]+0.094*[#   1]
          +0.094*[#   5]
    |psi|^2 = 0.992
==== e(   3) =    -8.25292 eV ==== 
     psi = 0.489*[#   2]+0.489*[#   6]
    |psi|^2 = 0.979
==== e(   4) =    -7.43092 eV ==== 
     psi = 0.311*[#   3]+0.311*[#   7]+0.187*[#   4]+0.187*[#   8]
    |psi|^2 = 0.997
==== e(   5) =     2.87401 eV ==== 
     psi = 0.010*[#   4]+0.010*[#   8]+0.006*[#   3]+0.006*[#   7]
    |psi|^2 = 0.032
==== e(   6) =     3.57982 eV ==== 
     psi = 0.006*[#   2]+0.006*[#   6]
    |psi|^2 = 0.013
==== e(   7) =     3.74225 eV ==== 
 
    |psi|^2 = 0.002
==== e(   8) =     4.67070 eV ==== 
     psi = 0.046*[#   2]+0.046*[#   6]
    |psi|^2 = 0.092

 k =   0.0000000000  0.3367876570  0.0000000000
==== e(   1) =   -19.89909 eV ==== 
     psi = 0.323*[#   1]+0.323*[#   5]+0.105*[#   4]+0.105*[#   8]+0.063*[#   3]
          +0.063*[#   7]
    |psi|^2 = 0.981
==== e(   2) =   -10.90245 eV ==== 
     psi = 0.240*[#   4]+0.240*[#   8]+0.144*[#   3]+0.144*[#   7]+0.112*[#   1]
          +0.112*[#   5]
    |psi|^2 = 0.991
==== e(   3) =    -7.82561 eV ==== 
     psi = 0.311*[#   3]+0.311*[#   7]+0.187*[#   4]+0.187*[#   8]
    |psi|^2 = 0.996
==== e(   4) =    -7.65193 eV ==== 
     psi = 0.493*[#   2]+0.493*[#   6]
    |psi|^2 = 0.986
==== e(   5) =     3.59694 eV ==== 
     psi = 0.007*[#   4]+0.007*[#   8]+0.004*[#   3]+0.004*[#   7]
    |psi|^2 = 0.023
==== e(   6) =     3.71123 eV ==== 
     psi = 0.437*[#   2]+0.437*[#   6]
    |psi|^2 = 0.873
==== e(   7) =     4.36771 eV ==== 
     psi = 0.034*[#   2]+0.034*[#   6]
    |psi|^2 = 0.067
==== e(   8) =     4.48466 eV ==== 
 
    |psi|^2 = 0.002

 k =   0.0000000000  0.3849001795  0.0000000000
==== e(   1) =   -19.30193 eV ==== 
     psi = 0.302*[#   1]+0.302*[#   5]+0.118*[#   4]+0.118*[#   8]+0.071*[#   3]
          +0.071*[#   7]
    |psi|^2 = 0.981
==== e(   2) =   -12.00212 eV ==== 
     psi = 0.229*[#   4]+0.229*[#   8]+0.138*[#   3]+0.138*[#   7]+0.128*[#   1]
          +0.128*[#   5]
    |psi|^2 = 0.990
==== e(   3) =    -8.16535 eV ==== 
     psi = 0.311*[#   3]+0.311*[#   7]+0.187*[#   4]+0.187*[#   8]
    |psi|^2 = 0.996
==== e(   4) =    -6.98249 eV ==== 
     psi = 0.495*[#   2]+0.495*[#   6]
    |psi|^2 = 0.991
==== e(   5) =     2.57654 eV ==== 
     psi = 0.467*[#   2]+0.467*[#   6]
    |psi|^2 = 0.934
==== e(   6) =     4.42438 eV ==== 
     psi = 0.003*[#   1]+0.003*[#   5]+0.003*[#   4]+0.003*[#   8]+0.002*[#   3]
          +0.002*[#   7]
    |psi|^2 = 0.014
==== e(   7) =     5.19111 eV ==== 
     psi = 0.005*[#   2]+0.005*[#   6]+0.002*[#   1]+0.002*[#   5]
    |psi|^2 = 0.015
==== e(   8) =     5.32674 eV ==== 
     psi = 0.125*[#   1]+0.125*[#   5]+0.038*[#   4]+0.038*[#   8]+0.023*[#   7]
          +0.023*[#   3]
    |psi|^2 = 0.373

 k =   0.0000000000  0.4330127019  0.0000000000
==== e(   1) =   -18.63416 eV ==== 
     psi = 0.286*[#   1]+0.286*[#   5]+0.128*[#   4]+0.128*[#   8]+0.077*[#   3]
          +0.077*[#   7]
    |psi|^2 = 0.982
==== e(   2) =   -13.07609 eV ==== 
     psi = 0.220*[#   4]+0.220*[#   8]+0.141*[#   1]+0.141*[#   5]+0.132*[#   3]
          +0.132*[#   7]
    |psi|^2 = 0.988
==== e(   3) =    -8.43892 eV ==== 
     psi = 0.311*[#   3]+0.311*[#   7]+0.187*[#   4]+0.187*[#   8]
    |psi|^2 = 0.996
==== e(   4) =    -6.26792 eV ==== 
     psi = 0.497*[#   2]+0.497*[#   6]
    |psi|^2 = 0.994
==== e(   5) =     1.45425 eV ==== 
     psi = 0.470*[#   2]+0.470*[#   6]
    |psi|^2 = 0.940
==== e(   6) =     5.18506 eV ==== 
     psi = 0.223*[#   1]+0.223*[#   5]+0.043*[#   4]+0.043*[#   8]+0.026*[#   3]
          +0.026*[#   7]
    |psi|^2 = 0.585
==== e(   7) =     5.45309 eV ==== 
     psi = 0.084*[#   1]+0.084*[#   5]+0.044*[#   4]+0.044*[#   8]+0.027*[#   3]
          +0.027*[#   7]
    |psi|^2 = 0.310
==== e(   8) =     6.14124 eV ==== 
     psi = 0.003*[#   2]+0.003*[#   6]
    |psi|^2 = 0.005

 k =   0.0000000000  0.4811252243  0.0000000000
==== e(   1) =   -17.90474 eV ==== 
     psi = 0.275*[#   1]+0.275*[#   5]+0.136*[#   4]+0.136*[#   8]+0.082*[#   3]
          +0.082*[#   7]
    |psi|^2 = 0.984
==== e(   2) =   -14.10327 eV ==== 
     psi = 0.214*[#   4]+0.214*[#   8]+0.150*[#   1]+0.150*[#   5]+0.129*[#   3]
          +0.129*[#   7]
    |psi|^2 = 0.986
==== e(   3) =    -8.63894 eV ==== 
     psi = 0.311*[#   3]+0.311*[#   7]+0.187*[#   4]+0.187*[#   8]
    |psi|^2 = 0.995
==== e(   4) =    -5.55724 eV ==== 
     psi = 0.498*[#   2]+0.498*[#   6]
    |psi|^2 = 0.996
==== e(   5) =     0.43687 eV ==== 
     psi = 0.472*[#   2]+0.472*[#   6]
    |psi|^2 = 0.944
==== e(   6) =     5.14604 eV ==== 
     psi = 0.323*[#   1]+0.323*[#   5]+0.070*[#   4]+0.070*[#   8]+0.042*[#   3]
          +0.042*[#   7]
    |psi|^2 = 0.870
==== e(   7) =     6.44143 eV ==== 
     psi = 0.007*[#   4]+0.007*[#   8]+0.004*[#   3]+0.004*[#   7]+0.003*[#   1]
          +0.003*[#   5]
    |psi|^2 = 0.026
==== e(   8) =     7.20695 eV ==== 
     psi = 0.002*[#   2]+0.002*[#   6]
    |psi|^2 = 0.004

 k =   0.0000000000  0.5292377468  0.0000000000
==== e(   1) =   -17.14563 eV ==== 
     psi = 0.278*[#   1]+0.278*[#   5]+0.135*[#   4]+0.135*[#   8]+0.081*[#   3]
          +0.081*[#   7]
    |psi|^2 = 0.988
==== e(   2) =   -15.04392 eV ==== 
     psi = 0.216*[#   4]+0.216*[#   8]+0.146*[#   1]+0.146*[#   5]+0.130*[#   3]
          +0.130*[#   7]
    |psi|^2 = 0.983
==== e(   3) =    -8.76065 eV ==== 
     psi = 0.311*[#   3]+0.311*[#   7]+0.187*[#   4]+0.187*[#   8]
    |psi|^2 = 0.995
==== e(   4) =    -4.96356 eV ==== 
     psi = 0.499*[#   2]+0.499*[#   6]
    |psi|^2 = 0.997
==== e(   5) =    -0.34655 eV ==== 
     psi = 0.473*[#   2]+0.473*[#   6]
    |psi|^2 = 0.946
==== e(   6) =     5.08867 eV ==== 
     psi = 0.335*[#   1]+0.335*[#   5]+0.066*[#   4]+0.066*[#   8]+0.040*[#   3]
          +0.040*[#   7]
    |psi|^2 = 0.883
==== e(   7) =     7.58504 eV ==== 
     psi = 0.003*[#   4]+0.003*[#   8]+0.002*[#   3]+0.002*[#   7]+0.001*[#   1]
          +0.001*[#   5]
    |psi|^2 = 0.011
==== e(   8) =     8.36855 eV ==== 
     psi = 0.002*[#   2]+0.002*[#   6]
    |psi|^2 = 0.004

 k =   0.0000000000 -0.5773502692  0.0000000000
==== e(   1) =   -16.63642 eV ==== 
     psi = 0.316*[#   1]+0.316*[#   5]+0.113*[#   4]+0.113*[#   8]+0.068*[#   3]
          +0.068*[#   7]
    |psi|^2 = 0.993
==== e(   2) =   -15.61412 eV ==== 
     psi = 0.238*[#   4]+0.238*[#   8]+0.143*[#   3]+0.143*[#   7]+0.108*[#   1]
          +0.108*[#   5]
    |psi|^2 = 0.978
==== e(   3) =    -8.80150 eV ==== 
     psi = 0.311*[#   3]+0.311*[#   7]+0.187*[#   4]+0.187*[#   8]
    |psi|^2 = 0.995
==== e(   4) =    -4.71093 eV ==== 
     psi = 0.499*[#   2]+0.499*[#   6]
    |psi|^2 = 0.998
==== e(   5) =    -0.66341 eV ==== 
     psi = 0.473*[#   2]+0.473*[#   6]
    |psi|^2 = 0.946
==== e(   6) =     5.06854 eV ==== 
     psi = 0.339*[#   1]+0.339*[#   5]+0.065*[#   4]+0.065*[#   8]+0.039*[#   3]
          +0.039*[#   7]
    |psi|^2 = 0.886
==== e(   7) =     8.75532 eV ==== 
     psi = 0.004*[#   1]+0.004*[#   5]
    |psi|^2 = 0.009
==== e(   8) =     8.90269 eV ==== 
     psi = 0.003*[#   4]+0.003*[#   8]+0.002*[#   3]+0.002*[#   7]
    |psi|^2 = 0.010

 k =   0.0416666667  0.0721687836  0.0000000000
==== e(   1) =   -21.76377 eV ==== 
     psi = 0.470*[#   1]+0.470*[#   5]+0.016*[#   4]+0.016*[#   8]+0.005*[#   3]
          +0.005*[#   7]
    |psi|^2 = 0.983
==== e(   2) =    -9.83831 eV ==== 
     psi = 0.475*[#   2]+0.475*[#   6]
    |psi|^2 = 0.949
==== e(   3) =    -5.90153 eV ==== 
     psi = 0.359*[#   4]+0.359*[#   8]+0.128*[#   3]+0.128*[#   7]+0.012*[#   1]
          +0.012*[#   5]
    |psi|^2 = 0.997
==== e(   4) =    -5.68579 eV ==== 
     psi = 0.367*[#   3]+0.367*[#   7]+0.131*[#   4]+0.131*[#   8]
    |psi|^2 = 0.997
==== e(   5) =     1.03048 eV ==== 
     psi = 0.005*[#   4]+0.005*[#   8]+0.002*[#   1]+0.002*[#   3]+0.002*[#   5]
          +0.002*[#   7]
    |psi|^2 = 0.017
==== e(   6) =     1.72090 eV ==== 
     psi = 0.008*[#   2]+0.008*[#   6]
    |psi|^2 = 0.016
==== e(   7) =     1.85637 eV ==== 
 
    |psi|^2 = 0.002
==== e(   8) =     2.85793 eV ==== 
     psi = 0.007*[#   2]+0.007*[#   6]
    |psi|^2 = 0.013

 k =   0.0416666667  0.1202813061  0.0000000000
==== e(   1) =   -21.59993 eV ==== 
     psi = 0.446*[#   1]+0.446*[#   5]+0.033*[#   4]+0.033*[#   8]+0.012*[#   3]
          +0.012*[#   7]
    |psi|^2 = 0.983
==== e(   2) =    -9.64251 eV ==== 
     psi = 0.477*[#   2]+0.477*[#   6]
    |psi|^2 = 0.954
==== e(   3) =    -6.48561 eV ==== 
     psi = 0.332*[#   4]+0.332*[#   8]+0.140*[#   3]+0.140*[#   7]+0.026*[#   1]
          +0.026*[#   5]
    |psi|^2 = 0.997
==== e(   4) =    -6.01416 eV ==== 
     psi = 0.349*[#   3]+0.349*[#   7]+0.147*[#   4]+0.147*[#   8]+0.002*[#   1]
          +0.002*[#   5]
    |psi|^2 = 0.996
==== e(   5) =     1.25430 eV ==== 
     psi = 0.009*[#   4]+0.009*[#   8]+0.003*[#   3]+0.003*[#   7]
    |psi|^2 = 0.026
==== e(   6) =     1.94777 eV ==== 
     psi = 0.008*[#   2]+0.008*[#   6]
    |psi|^2 = 0.015
==== e(   7) =     2.08490 eV ==== 
 
    |psi|^2 = 0.003
==== e(   8) =     3.08428 eV ==== 
     psi = 0.006*[#   2]+0.006*[#   6]
    |psi|^2 = 0.012

 k =   0.0416666667  0.1683938285  0.0000000000
==== e(   1) =   -21.35475 eV ==== 
     psi = 0.417*[#   1]+0.417*[#   5]+0.053*[#   4]+0.053*[#   8]+0.021*[#   3]
          +0.021*[#   7]
    |psi|^2 = 0.982
==== e(   2) =    -9.35046 eV ==== 
     psi = 0.480*[#   2]+0.480*[#   6]
    |psi|^2 = 0.960
==== e(   3) =    -7.28211 eV ==== 
     psi = 0.303*[#   4]+0.303*[#   8]+0.150*[#   3]+0.150*[#   7]+0.044*[#   1]
          +0.044*[#   5]
    |psi|^2 = 0.996
==== e(   4) =    -6.43253 eV ==== 
     psi = 0.331*[#   3]+0.331*[#   7]+0.164*[#   4]+0.164*[#   8]+0.003*[#   1]
          +0.003*[#   5]
    |psi|^2 = 0.996
==== e(   5) =     1.58991 eV ==== 
     psi = 0.012*[#   4]+0.012*[#   8]+0.005*[#   3]+0.005*[#   7]
    |psi|^2 = 0.033
==== e(   6) =     2.28789 eV ==== 
     psi = 0.007*[#   2]+0.007*[#   6]
    |psi|^2 = 0.013
==== e(   7) =     2.42805 eV ==== 
     psi = 0.001*[#   4]+0.001*[#   8]
    |psi|^2 = 0.003
==== e(   8) =     3.42540 eV ==== 
     psi = 0.005*[#   2]+0.005*[#   6]
    |psi|^2 = 0.010

 k =   0.0416666667  0.2165063509  0.0000000000
==== e(   1) =   -21.02891 eV ==== 
     psi = 0.387*[#   1]+0.387*[#   5]+0.072*[#   4]+0.072*[#   8]+0.032*[#   3]
          +0.032*[#   7]
    |psi|^2 = 0.981
==== e(   2) =    -8.96440 eV ==== 
     psi = 0.484*[#   2]+0.484*[#   6]
    |psi|^2 = 0.967
==== e(   3) =    -8.22714 eV ==== 
     psi = 0.280*[#   4]+0.280*[#   8]+0.153*[#   3]+0.153*[#   7]+0.064*[#   1]
          +0.064*[#   5]
    |psi|^2 = 0.994
==== e(   4) =    -6.88798 eV ==== 
     psi = 0.320*[#   3]+0.320*[#   7]+0.175*[#   4]+0.175*[#   8]+0.003*[#   1]
          +0.003*[#   5]
    |psi|^2 = 0.996
==== e(   5) =     2.03718 eV ==== 
     psi = 0.013*[#   4]+0.013*[#   8]+0.006*[#   3]+0.006*[#   7]
    |psi|^2 = 0.036
==== e(   6) =     2.74054 eV ==== 
     psi = 0.005*[#   2]+0.005*[#   6]
    |psi|^2 = 0.011
==== e(   7) =     2.88530 eV ==== 
     psi = 0.001*[#   4]+0.001*[#   8]
    |psi|^2 = 0.004
==== e(   8) =     3.87367 eV ==== 
     psi = 0.004*[#   2]+0.004*[#   6]
    |psi|^2 = 0.009

 k =   0.0416666667  0.2646188734  0.0000000000
==== e(   1) =   -20.62342 eV ==== 
     psi = 0.359*[#   1]+0.359*[#   5]+0.090*[#   4]+0.090*[#   8]+0.042*[#   3]
          +0.042*[#   7]
    |psi|^2 = 0.981
==== e(   2) =    -9.26370 eV ==== 
     psi = 0.260*[#   4]+0.260*[#   8]+0.152*[#   3]+0.152*[#   7]+0.084*[#   1]
          +0.084*[#   5]
    |psi|^2 = 0.993
==== e(   3) =    -8.48789 eV ==== 
     psi = 0.488*[#   2]+0.488*[#   6]
    |psi|^2 = 0.975
==== e(   4) =    -7.34075 eV ==== 
     psi = 0.313*[#   3]+0.313*[#   7]+0.181*[#   4]+0.181*[#   8]+0.004*[#   1]
          +0.004*[#   5]
    |psi|^2 = 0.996
==== e(   5) =     2.59558 eV ==== 
     psi = 0.012*[#   4]+0.012*[#   8]+0.005*[#   3]+0.005*[#   7]
    |psi|^2 = 0.035
==== e(   6) =     3.30323 eV ==== 
     psi = 0.005*[#   2]+0.005*[#   6]
    |psi|^2 = 0.009
==== e(   7) =     3.45669 eV ==== 
 
    |psi|^2 = 0.003
==== e(   8) =     4.43179 eV ==== 
     psi = 0.006*[#   2]+0.006*[#   6]
    |psi|^2 = 0.013

 k =   0.0416666667  0.3127313958  0.0000000000
==== e(   1) =   -20.13975 eV ==== 
     psi = 0.333*[#   1]+0.333*[#   5]+0.106*[#   4]+0.106*[#   8]+0.051*[#   3]
          +0.051*[#   7]
    |psi|^2 = 0.981
==== e(   2) =   -10.34696 eV ==== 
     psi = 0.244*[#   4]+0.244*[#   8]+0.149*[#   3]+0.149*[#   7]+0.103*[#   1]
          +0.103*[#   5]
    |psi|^2 = 0.992
==== e(   3) =    -7.92657 eV ==== 
     psi = 0.491*[#   2]+0.491*[#   6]
    |psi|^2 = 0.983
==== e(   4) =    -7.76299 eV ==== 
     psi = 0.310*[#   3]+0.310*[#   7]+0.184*[#   4]+0.184*[#   8]+0.004*[#   1]
          +0.004*[#   5]
    |psi|^2 = 0.996
==== e(   5) =     3.26430 eV ==== 
     psi = 0.010*[#   4]+0.010*[#   8]+0.005*[#   3]+0.005*[#   7]
    |psi|^2 = 0.029
==== e(   6) =     3.93657 eV ==== 
     psi = 0.060*[#   2]+0.060*[#   6]
    |psi|^2 = 0.119
==== e(   7) =     4.14284 eV ==== 
 
    |psi|^2 = 0.002
==== e(   8) =     4.33560 eV ==== 
     psi = 0.405*[#   2]+0.405*[#   6]
    |psi|^2 = 0.809

 k =   0.0416666667  0.3608439182  0.0000000000
==== e(   1) =   -19.57992 eV ==== 
     psi = 0.311*[#   1]+0.311*[#   5]+0.120*[#   4]+0.120*[#   8]+0.059*[#   3]
          +0.059*[#   7]
    |psi|^2 = 0.981
==== e(   2) =   -11.44320 eV ==== 
     psi = 0.231*[#   4]+0.231*[#   8]+0.144*[#   3]+0.144*[#   7]+0.120*[#   1]
          +0.120*[#   5]
    |psi|^2 = 0.990
==== e(   3) =    -8.13555 eV ==== 
     psi = 0.308*[#   3]+0.308*[#   7]+0.186*[#   4]+0.186*[#   8]+0.004*[#   1]
          +0.004*[#   5]
    |psi|^2 = 0.996
==== e(   4) =    -7.28972 eV ==== 
     psi = 0.494*[#   2]+0.494*[#   6]
    |psi|^2 = 0.989
==== e(   5) =     3.12433 eV ==== 
     psi = 0.465*[#   2]+0.465*[#   6]
    |psi|^2 = 0.930
==== e(   6) =     4.04117 eV ==== 
     psi = 0.006*[#   4]+0.006*[#   8]+0.003*[#   3]+0.003*[#   7]
    |psi|^2 = 0.018
==== e(   7) =     4.79545 eV ==== 
     psi = 0.008*[#   2]+0.008*[#   6]
    |psi|^2 = 0.017
==== e(   8) =     4.94306 eV ==== 
     psi = 0.003*[#   1]+0.003*[#   5]
    |psi|^2 = 0.007

 k =   0.0416666667  0.4089564407  0.0000000000
==== e(   1) =   -18.94720 eV ==== 
     psi = 0.293*[#   1]+0.293*[#   5]+0.132*[#   4]+0.132*[#   8]+0.066*[#   3]
          +0.066*[#   7]
    |psi|^2 = 0.982
==== e(   2) =   -12.52679 eV ==== 
     psi = 0.220*[#   4]+0.220*[#   8]+0.140*[#   3]+0.140*[#   7]+0.135*[#   1]
          +0.135*[#   5]
    |psi|^2 = 0.989
==== e(   3) =    -8.44559 eV ==== 
     psi = 0.307*[#   3]+0.307*[#   7]+0.186*[#   4]+0.186*[#   8]+0.004*[#   1]
          +0.004*[#   5]
    |psi|^2 = 0.995
==== e(   4) =    -6.59399 eV ==== 
     psi = 0.497*[#   2]+0.497*[#   6]
    |psi|^2 = 0.993
==== e(   5) =     1.98840 eV ==== 
     psi = 0.470*[#   2]+0.470*[#   6]
    |psi|^2 = 0.940
==== e(   6) =     4.91624 eV ==== 
     psi = 0.009*[#   1]+0.009*[#   5]
    |psi|^2 = 0.021
==== e(   7) =     5.52429 eV ==== 
     psi = 0.280*[#   1]+0.280*[#   5]+0.092*[#   8]+0.091*[#   4]+0.062*[#   3]
          +0.062*[#   7]
    |psi|^2 = 0.867
==== e(   8) =     5.69523 eV ==== 
     psi = 0.003*[#   2]+0.003*[#   6]
    |psi|^2 = 0.008

 k =   0.0416666667  0.4570689631  0.0000000000
==== e(   1) =   -18.24749 eV ==== 
     psi = 0.278*[#   1]+0.278*[#   5]+0.141*[#   4]+0.141*[#   8]+0.072*[#   3]
          +0.072*[#   7]
    |psi|^2 = 0.983
==== e(   2) =   -13.57630 eV ==== 
     psi = 0.211*[#   4]+0.211*[#   8]+0.147*[#   1]+0.147*[#   5]+0.136*[#   3]
          +0.136*[#   7]
    |psi|^2 = 0.988
==== e(   3) =    -8.68444 eV ==== 
     psi = 0.307*[#   3]+0.307*[#   7]+0.186*[#   4]+0.186*[#   8]+0.004*[#   1]
          +0.004*[#   5]
    |psi|^2 = 0.995
==== e(   4) =    -5.87240 eV ==== 
     psi = 0.498*[#   2]+0.498*[#   6]
    |psi|^2 = 0.995
==== e(   5) =     0.91344 eV ==== 
     psi = 0.472*[#   2]+0.472*[#   6]
    |psi|^2 = 0.944
==== e(   6) =     5.36440 eV ==== 
     psi = 0.299*[#   1]+0.299*[#   5]+0.067*[#   4]+0.067*[#   8]+0.046*[#   3]
          +0.046*[#   7]
    |psi|^2 = 0.823
==== e(   7) =     5.95773 eV ==== 
     psi = 0.014*[#   4]+0.014*[#   8]+0.013*[#   1]+0.013*[#   5]+0.008*[#   3]
          +0.008*[#   7]
    |psi|^2 = 0.070
==== e(   8) =     6.69744 eV ==== 
     psi = 0.002*[#   2]+0.002*[#   6]
    |psi|^2 = 0.004

 k =   0.0416666667  0.5051814855  0.0000000000
==== e(   1) =   -17.49636 eV ==== 
     psi = 0.272*[#   1]+0.272*[#   5]+0.145*[#   4]+0.145*[#   8]+0.076*[#   3]
          +0.076*[#   7]
    |psi|^2 = 0.986
==== e(   2) =   -14.56579 eV ==== 
     psi = 0.207*[#   4]+0.207*[#   8]+0.151*[#   1]+0.151*[#   5]+0.134*[#   3]
          +0.134*[#   7]
    |psi|^2 = 0.985
==== e(   3) =    -8.84646 eV ==== 
     psi = 0.307*[#   3]+0.307*[#   7]+0.186*[#   4]+0.186*[#   8]+0.004*[#   1]
          +0.004*[#   5]
    |psi|^2 = 0.995
==== e(   4) =    -5.19874 eV ==== 
     psi = 0.498*[#   2]+0.498*[#   6]
    |psi|^2 = 0.997
==== e(   5) =    -0.00558 eV ==== 
     psi = 0.473*[#   2]+0.473*[#   6]
    |psi|^2 = 0.947
==== e(   6) =     5.29861 eV ==== 
     psi = 0.325*[#   1]+0.325*[#   5]+0.068*[#   4]+0.068*[#   8]+0.045*[#   3]
          +0.045*[#   7]
    |psi|^2 = 0.875
==== e(   7) =     7.04075 eV ==== 
     psi = 0.004*[#   4]+0.004*[#   8]+0.002*[#   3]+0.002*[#   7]+0.001*[#   1]
          +0.001*[#   5]
    |psi|^2 = 0.016
==== e(   8) =     7.80945 eV ==== 
     psi = 0.002*[#   2]+0.002*[#   6]
    |psi|^2 = 0.004

 k =   0.0416666667  0.5532940080  0.0000000000
==== e(   1) =   -16.77817 eV ==== 
     psi = 0.294*[#   1]+0.294*[#   5]+0.130*[#   4]+0.130*[#   8]+0.071*[#   3]
          +0.071*[#   7]
    |psi|^2 = 0.991
==== e(   2) =   -15.40464 eV ==== 
     psi = 0.221*[#   4]+0.221*[#   8]+0.140*[#   3]+0.140*[#   7]+0.129*[#   1]
          +0.129*[#   5]
    |psi|^2 = 0.980
==== e(   3) =    -8.92826 eV ==== 
     psi = 0.308*[#   3]+0.308*[#   7]+0.185*[#   4]+0.185*[#   8]+0.004*[#   1]
          +0.004*[#   5]
    |psi|^2 = 0.995
==== e(   4) =    -4.74061 eV ==== 
     psi = 0.499*[#   2]+0.499*[#   6]
    |psi|^2 = 0.997
==== e(   5) =    -0.58921 eV ==== 
     psi = 0.474*[#   2]+0.474*[#   6]
    |psi|^2 = 0.948
==== e(   6) =     5.25917 eV ==== 
     psi = 0.333*[#   1]+0.333*[#   5]+0.066*[#   4]+0.066*[#   8]+0.042*[#   3]
          +0.042*[#   7]
    |psi|^2 = 0.882
==== e(   7) =     8.23145 eV ==== 
     psi = 0.002*[#   1]+0.002*[#   4]+0.002*[#   5]+0.002*[#   8]+0.001*[#   3]
          +0.001*[#   7]
    |psi|^2 = 0.009
==== e(   8) =     9.01733 eV ==== 
     psi = 0.003*[#   2]+0.003*[#   6]
    |psi|^2 = 0.006

 k =   0.0833333333  0.1443375673  0.0000000000
==== e(   1) =   -21.39558 eV ==== 
     psi = 0.421*[#   1]+0.421*[#   5]+0.052*[#   4]+0.052*[#   8]+0.017*[#   3]
          +0.017*[#   7]
    |psi|^2 = 0.982
==== e(   2) =    -9.39896 eV ==== 
     psi = 0.479*[#   2]+0.479*[#   6]
    |psi|^2 = 0.959
==== e(   3) =    -7.09838 eV ==== 
     psi = 0.327*[#   4]+0.327*[#   8]+0.132*[#   3]+0.132*[#   7]+0.039*[#   1]
          +0.039*[#   5]
    |psi|^2 = 0.997
==== e(   4) =    -6.43487 eV ==== 
     psi = 0.350*[#   3]+0.350*[#   7]+0.141*[#   4]+0.141*[#   8]+0.006*[#   1]
          +0.006*[#   5]
    |psi|^2 = 0.995
==== e(   5) =     1.53408 eV ==== 
     psi = 0.012*[#   4]+0.012*[#   8]+0.004*[#   3]+0.004*[#   7]
    |psi|^2 = 0.033
==== e(   6) =     2.23117 eV ==== 
     psi = 0.007*[#   2]+0.007*[#   6]
    |psi|^2 = 0.013
==== e(   7) =     2.37075 eV ==== 
     psi = 0.001*[#   4]+0.001*[#   8]
    |psi|^2 = 0.003
==== e(   8) =     3.36697 eV ==== 
     psi = 0.005*[#   2]+0.005*[#   6]
    |psi|^2 = 0.011

 k =   0.0833333333  0.1924500897  0.0000000000
==== e(   1) =   -21.11028 eV ==== 
     psi = 0.394*[#   1]+0.394*[#   5]+0.072*[#   4]+0.072*[#   8]+0.025*[#   3]
          +0.025*[#   7]
    |psi|^2 = 0.981
==== e(   2) =    -9.06038 eV ==== 
     psi = 0.483*[#   2]+0.483*[#   6]
    |psi|^2 = 0.966
==== e(   3) =    -7.88318 eV ==== 
     psi = 0.304*[#   4]+0.304*[#   8]+0.138*[#   3]+0.138*[#   7]+0.056*[#   1]
          +0.056*[#   5]
    |psi|^2 = 0.997
==== e(   4) =    -6.93180 eV ==== 
     psi = 0.336*[#   3]+0.336*[#   7]+0.152*[#   4]+0.152*[#   8]+0.009*[#   1]
          +0.009*[#   5]
    |psi|^2 = 0.993
==== e(   5) =     1.92566 eV ==== 
     psi = 0.014*[#   4]+0.014*[#   8]+0.005*[#   3]+0.005*[#   7]
    |psi|^2 = 0.037
==== e(   6) =     2.62751 eV ==== 
     psi = 0.006*[#   2]+0.006*[#   6]
    |psi|^2 = 0.011
==== e(   7) =     2.77089 eV ==== 
     psi = 0.001*[#   4]+0.001*[#   8]
    |psi|^2 = 0.003
==== e(   8) =     3.76227 eV ==== 
     psi = 0.004*[#   2]+0.004*[#   6]
    |psi|^2 = 0.009

 k =   0.0833333333  0.2405626122  0.0000000000
==== e(   1) =   -20.74491 eV ==== 
     psi = 0.366*[#   1]+0.366*[#   5]+0.091*[#   4]+0.091*[#   8]+0.033*[#   3]
          +0.033*[#   7]
    |psi|^2 = 0.981
==== e(   2) =    -8.80630 eV ==== 
     psi = 0.277*[#   4]+0.277*[#   8]+0.145*[#   3]+0.145*[#   7]+0.075*[#   1]
          +0.075*[#   5]
    |psi|^2 = 0.995
==== e(   3) =    -8.62959 eV ==== 
     psi = 0.487*[#   2]+0.487*[#   6]
    |psi|^2 = 0.973
==== e(   4) =    -7.43382 eV ==== 
     psi = 0.320*[#   3]+0.320*[#   7]+0.165*[#   4]+0.165*[#   8]+0.012*[#   1]
          +0.012*[#   5]
    |psi|^2 = 0.993
==== e(   5) =     2.42871 eV ==== 
     psi = 0.013*[#   4]+0.013*[#   8]+0.005*[#   3]+0.005*[#   7]
    |psi|^2 = 0.037
==== e(   6) =     3.13629 eV ==== 
     psi = 0.005*[#   2]+0.005*[#   6]
    |psi|^2 = 0.010
==== e(   7) =     3.28591 eV ==== 
     psi = 0.001*[#   4]+0.001*[#   8]
    |psi|^2 = 0.004
==== e(   8) =     4.26850 eV ==== 
     psi = 0.004*[#   2]+0.004*[#   6]
    |psi|^2 = 0.008

 k =   0.0833333333  0.2886751346  0.0000000000
==== e(   1) =   -20.30074 eV ==== 
     psi = 0.341*[#   1]+0.341*[#   5]+0.108*[#   4]+0.108*[#   8]+0.042*[#   3]
          +0.042*[#   7]
    |psi|^2 = 0.981
==== e(   2) =    -9.81972 eV ==== 
     psi = 0.255*[#   4]+0.255*[#   8]+0.149*[#   3]+0.149*[#   7]+0.093*[#   1]
          +0.093*[#   5]
    |psi|^2 = 0.993
==== e(   3) =    -8.11102 eV ==== 
     psi = 0.490*[#   2]+0.490*[#   6]
    |psi|^2 = 0.980
==== e(   4) =    -7.90329 eV ==== 
     psi = 0.309*[#   3]+0.309*[#   7]+0.174*[#   4]+0.174*[#   8]+0.013*[#   1]
          +0.013*[#   5]
    |psi|^2 = 0.994
==== e(   5) =     3.04252 eV ==== 
     psi = 0.012*[#   4]+0.012*[#   8]+0.004*[#   3]+0.004*[#   7]
    |psi|^2 = 0.032
==== e(   6) =     3.74995 eV ==== 
     psi = 0.007*[#   2]+0.007*[#   6]
    |psi|^2 = 0.014
==== e(   7) =     3.91417 eV ==== 
 
    |psi|^2 = 0.003
==== e(   8) =     4.69497 eV ==== 
     psi = 0.440*[#   2]+0.440*[#   6]
    |psi|^2 = 0.880

 k =   0.0833333333  0.3367876570  0.0000000000
==== e(   1) =   -19.77953 eV ==== 
     psi = 0.318*[#   1]+0.318*[#   5]+0.122*[#   4]+0.122*[#   8]+0.050*[#   3]
          +0.050*[#   7]
    |psi|^2 = 0.981
==== e(   2) =   -10.87876 eV ==== 
     psi = 0.237*[#   4]+0.237*[#   8]+0.148*[#   3]+0.148*[#   7]+0.111*[#   1]
          +0.111*[#   5]
    |psi|^2 = 0.992
==== e(   3) =    -8.32076 eV ==== 
     psi = 0.303*[#   3]+0.303*[#   7]+0.180*[#   4]+0.180*[#   8]+0.014*[#   1]
          +0.014*[#   5]
    |psi|^2 = 0.994
==== e(   4) =    -7.51174 eV ==== 
     psi = 0.493*[#   2]+0.493*[#   6]
    |psi|^2 = 0.987
==== e(   5) =     3.58996 eV ==== 
     psi = 0.464*[#   2]+0.464*[#   6]
    |psi|^2 = 0.928
==== e(   6) =     3.76610 eV ==== 
     psi = 0.009*[#   4]+0.009*[#   8]+0.003*[#   3]+0.003*[#   7]
    |psi|^2 = 0.024
==== e(   7) =     4.51026 eV ==== 
     psi = 0.013*[#   2]+0.013*[#   6]
    |psi|^2 = 0.025
==== e(   8) =     4.65684 eV ==== 
 
    |psi|^2 = 0.002

 k =   0.0833333333  0.3849001795  0.0000000000
==== e(   1) =   -19.18390 eV ==== 
     psi = 0.298*[#   1]+0.298*[#   5]+0.135*[#   4]+0.135*[#   8]+0.058*[#   3]
          +0.058*[#   7]
    |psi|^2 = 0.981
==== e(   2) =   -11.94850 eV ==== 
     psi = 0.222*[#   4]+0.222*[#   8]+0.146*[#   3]+0.146*[#   7]+0.127*[#   1]
          +0.127*[#   5]
    |psi|^2 = 0.990
==== e(   3) =    -8.67433 eV ==== 
     psi = 0.300*[#   3]+0.300*[#   7]+0.182*[#   4]+0.182*[#   8]+0.015*[#   1]
          +0.015*[#   5]
    |psi|^2 = 0.994
==== e(   4) =    -6.84379 eV ==== 
     psi = 0.496*[#   2]+0.496*[#   6]
    |psi|^2 = 0.992
==== e(   5) =     2.47783 eV ==== 
     psi = 0.473*[#   2]+0.473*[#   6]
    |psi|^2 = 0.946
==== e(   6) =     4.59707 eV ==== 
     psi = 0.005*[#   4]+0.005*[#   8]+0.002*[#   3]+0.002*[#   7]
    |psi|^2 = 0.015
==== e(   7) =     5.34533 eV ==== 
     psi = 0.004*[#   2]+0.004*[#   6]
    |psi|^2 = 0.007
==== e(   8) =     5.51221 eV ==== 
     psi = 0.002*[#   1]+0.002*[#   5]
    |psi|^2 = 0.004

 k =   0.0833333333  0.4330127019  0.0000000000
==== e(   1) =   -18.51818 eV ==== 
     psi = 0.282*[#   1]+0.282*[#   5]+0.145*[#   4]+0.145*[#   8]+0.064*[#   3]
          +0.064*[#   7]
    |psi|^2 = 0.983
==== e(   2) =   -13.00208 eV ==== 
     psi = 0.210*[#   4]+0.210*[#   8]+0.144*[#   3]+0.144*[#   7]+0.141*[#   1]
          +0.141*[#   5]
    |psi|^2 = 0.989
==== e(   3) =    -8.95612 eV ==== 
     psi = 0.299*[#   3]+0.299*[#   7]+0.183*[#   4]+0.183*[#   8]+0.015*[#   1]
          +0.015*[#   5]
    |psi|^2 = 0.994
==== e(   4) =    -6.12972 eV ==== 
     psi = 0.497*[#   2]+0.497*[#   6]
    |psi|^2 = 0.995
==== e(   5) =     1.38617 eV ==== 
     psi = 0.474*[#   2]+0.474*[#   6]
    |psi|^2 = 0.948
==== e(   6) =     5.52022 eV ==== 
     psi = 0.015*[#   1]+0.015*[#   5]
    |psi|^2 = 0.033
==== e(   7) =     5.99734 eV ==== 
     psi = 0.270*[#   1]+0.270*[#   5]+0.086*[#   4]+0.086*[#   8]+0.066*[#   3]
          +0.066*[#   7]
    |psi|^2 = 0.845
==== e(   8) =     6.30356 eV ==== 
     psi = 0.002*[#   2]+0.002*[#   6]
    |psi|^2 = 0.005

 k =   0.0833333333  0.4811252243  0.0000000000
==== e(   1) =   -17.79156 eV ==== 
     psi = 0.271*[#   1]+0.271*[#   5]+0.152*[#   4]+0.152*[#   8]+0.069*[#   3]
          +0.069*[#   7]
    |psi|^2 = 0.985
==== e(   2) =   -14.01511 eV ==== 
     psi = 0.202*[#   4]+0.202*[#   8]+0.150*[#   1]+0.150*[#   5]+0.141*[#   3]
          +0.141*[#   7]
    |psi|^2 = 0.987
==== e(   3) =    -9.16074 eV ==== 
     psi = 0.299*[#   3]+0.299*[#   7]+0.183*[#   4]+0.183*[#   8]+0.015*[#   1]
          +0.015*[#   5]
    |psi|^2 = 0.994
==== e(   4) =    -5.41719 eV ==== 
     psi = 0.498*[#   2]+0.498*[#   6]
    |psi|^2 = 0.996
==== e(   5) =     0.38929 eV ==== 
     psi = 0.475*[#   2]+0.475*[#   6]
    |psi|^2 = 0.950
==== e(   6) =     5.85781 eV ==== 
     psi = 0.299*[#   1]+0.299*[#   5]+0.069*[#   4]+0.069*[#   8]+0.054*[#   3]
          +0.054*[#   7]
    |psi|^2 = 0.843
==== e(   7) =     6.60927 eV ==== 
     psi = 0.009*[#   4]+0.009*[#   8]+0.006*[#   1]+0.006*[#   5]+0.005*[#   3]
          +0.005*[#   7]
    |psi|^2 = 0.040
==== e(   8) =     7.35262 eV ==== 
     psi = 0.002*[#   2]+0.002*[#   6]
    |psi|^2 = 0.004

 k =   0.0833333333  0.5292377468  0.0000000000
==== e(   1) =   -17.03634 eV ==== 
     psi = 0.274*[#   1]+0.274*[#   5]+0.149*[#   4]+0.149*[#   8]+0.071*[#   3]
          +0.071*[#   7]
    |psi|^2 = 0.988
==== e(   2) =   -14.94573 eV ==== 
     psi = 0.204*[#   4]+0.204*[#   8]+0.146*[#   1]+0.146*[#   5]+0.142*[#   3]
          +0.142*[#   7]
    |psi|^2 = 0.984
==== e(   3) =    -9.28479 eV ==== 
     psi = 0.299*[#   3]+0.299*[#   7]+0.182*[#   4]+0.182*[#   8]+0.015*[#   1]
          +0.015*[#   5]
    |psi|^2 = 0.994
==== e(   4) =    -4.81793 eV ==== 
     psi = 0.499*[#   2]+0.499*[#   6]
    |psi|^2 = 0.997
==== e(   5) =    -0.38634 eV ==== 
     psi = 0.476*[#   2]+0.476*[#   6]
    |psi|^2 = 0.952
==== e(   6) =     5.80538 eV ==== 
     psi = 0.315*[#   1]+0.315*[#   5]+0.069*[#   4]+0.069*[#   8]+0.051*[#   3]
          +0.051*[#   7]
    |psi|^2 = 0.870
==== e(   7) =     7.74404 eV ==== 
     psi = 0.003*[#   4]+0.003*[#   8]+0.002*[#   3]+0.002*[#   7]+0.001*[#   1]
          +0.001*[#   5]
    |psi|^2 = 0.012
==== e(   8) =     8.49681 eV ==== 
     psi = 0.002*[#   2]+0.002*[#   6]
    |psi|^2 = 0.005

 k =   0.0833333333  0.5773502692  0.0000000000
==== e(   1) =   -16.53109 eV ==== 
     psi = 0.310*[#   1]+0.310*[#   5]+0.114*[#   4]+0.114*[#   8]+0.073*[#   3]
          +0.073*[#   7]
    |psi|^2 = 0.993
==== e(   2) =   -15.51001 eV ==== 
     psi = 0.237*[#   4]+0.237*[#   8]+0.142*[#   3]+0.142*[#   7]+0.110*[#   1]
          +0.110*[#   5]
    |psi|^2 = 0.979
==== e(   3) =    -9.32634 eV ==== 
     psi = 0.300*[#   3]+0.300*[#   7]+0.181*[#   4]+0.181*[#   8]+0.015*[#   1]
          +0.015*[#   5]
    |psi|^2 = 0.994
==== e(   4) =    -4.56071 eV ==== 
     psi = 0.499*[#   2]+0.499*[#   6]
    |psi|^2 = 0.998
==== e(   5) =    -0.70330 eV ==== 
     psi = 0.476*[#   2]+0.476*[#   6]
    |psi|^2 = 0.952
==== e(   6) =     5.78544 eV ==== 
     psi = 0.319*[#   1]+0.319*[#   5]+0.070*[#   4]+0.070*[#   8]+0.048*[#   3]
          +0.048*[#   7]
    |psi|^2 = 0.873
==== e(   7) =     8.90054 eV ==== 
     psi = 0.005*[#   1]+0.005*[#   5]
    |psi|^2 = 0.013
==== e(   8) =     9.05740 eV ==== 
     psi = 0.003*[#   4]+0.003*[#   8]+0.002*[#   3]+0.002*[#   7]
    |psi|^2 = 0.010

 k =   0.1250000000  0.2165063509  0.0000000000
==== e(   1) =   -20.78545 eV ==== 
     psi = 0.369*[#   1]+0.369*[#   5]+0.091*[#   4]+0.091*[#   8]+0.031*[#   3]
          +0.031*[#   7]
    |psi|^2 = 0.981
==== e(   2) =    -8.67694 eV ==== 
     psi = 0.486*[#   2]+0.486*[#   6]
    |psi|^2 = 0.972
==== e(   3) =    -8.59543 eV ==== 
     psi = 0.294*[#   4]+0.294*[#   8]+0.134*[#   3]+0.134*[#   7]+0.070*[#   1]
          +0.070*[#   5]
    |psi|^2 = 0.997
==== e(   4) =    -7.52631 eV ==== 
     psi = 0.331*[#   3]+0.331*[#   7]+0.149*[#   4]+0.149*[#   8]+0.016*[#   1]
          +0.016*[#   5]
    |psi|^2 = 0.991
==== e(   5) =     2.37307 eV ==== 
     psi = 0.014*[#   4]+0.014*[#   8]+0.005*[#   3]+0.005*[#   7]
    |psi|^2 = 0.037
==== e(   6) =     3.07971 eV ==== 
     psi = 0.005*[#   2]+0.005*[#   6]
    |psi|^2 = 0.009
==== e(   7) =     3.22828 eV ==== 
     psi = 0.001*[#   4]+0.001*[#   8]
    |psi|^2 = 0.003
==== e(   8) =     4.21292 eV ==== 
     psi = 0.004*[#   2]+0.004*[#   6]
    |psi|^2 = 0.007

 k =   0.1250000000  0.2646188734  0.0000000000
==== e(   1) =   -20.38141 eV ==== 
     psi = 0.345*[#   1]+0.345*[#   5]+0.108*[#   4]+0.108*[#   8]+0.037*[#   3]
          +0.037*[#   7]
    |psi|^2 = 0.981
==== e(   2) =    -9.43224 eV ==== 
     psi = 0.273*[#   4]+0.273*[#   8]+0.138*[#   3]+0.138*[#   7]+0.087*[#   1]
          +0.087*[#   5]
    |psi|^2 = 0.996
==== e(   3) =    -8.20364 eV ==== 
     psi = 0.490*[#   2]+0.490*[#   6]
    |psi|^2 = 0.979
==== e(   4) =    -8.10868 eV ==== 
     psi = 0.319*[#   3]+0.319*[#   7]+0.156*[#   4]+0.156*[#   8]+0.021*[#   1]
          +0.021*[#   5]
    |psi|^2 = 0.991
==== e(   5) =     2.93163 eV ==== 
     psi = 0.013*[#   4]+0.013*[#   8]+0.004*[#   3]+0.004*[#   7]
    |psi|^2 = 0.034
==== e(   6) =     3.64311 eV ==== 
     psi = 0.004*[#   2]+0.004*[#   6]
    |psi|^2 = 0.007
==== e(   7) =     3.79995 eV ==== 
     psi = 0.001*[#   4]+0.001*[#   8]
    |psi|^2 = 0.003
==== e(   8) =     4.77526 eV ==== 
     psi = 0.057*[#   2]+0.057*[#   6]
    |psi|^2 = 0.115

 k =   0.1250000000  0.3127313958  0.0000000000
==== e(   1) =   -19.89968 eV ==== 
     psi = 0.322*[#   1]+0.322*[#   5]+0.124*[#   4]+0.124*[#   8]+0.044*[#   3]
          +0.044*[#   7]
    |psi|^2 = 0.981
==== e(   2) =   -10.37623 eV ==== 
     psi = 0.249*[#   4]+0.249*[#   8]+0.144*[#   3]+0.144*[#   7]+0.104*[#   1]
          +0.104*[#   5]
    |psi|^2 = 0.994
==== e(   3) =    -8.61896 eV ==== 
     psi = 0.306*[#   3]+0.306*[#   7]+0.166*[#   4]+0.166*[#   8]+0.024*[#   1]
          +0.024*[#   5]
    |psi|^2 = 0.991
==== e(   4) =    -7.64593 eV ==== 
     psi = 0.493*[#   2]+0.493*[#   6]
    |psi|^2 = 0.986
==== e(   5) =     3.60055 eV ==== 
     psi = 0.010*[#   4]+0.010*[#   8]+0.004*[#   3]+0.004*[#   7]
    |psi|^2 = 0.028
==== e(   6) =     3.91922 eV ==== 
     psi = 0.465*[#   2]+0.465*[#   6]
    |psi|^2 = 0.930
==== e(   7) =     4.33172 eV ==== 
     psi = 0.017*[#   2]+0.017*[#   6]
    |psi|^2 = 0.035
==== e(   8) =     4.48619 eV ==== 
 
    |psi|^2 = 0.002

 k =   0.1250000000  0.3608439182  0.0000000000
==== e(   1) =   -19.34254 eV ==== 
     psi = 0.302*[#   1]+0.302*[#   5]+0.137*[#   4]+0.137*[#   8]+0.051*[#   3]
          +0.051*[#   7]
    |psi|^2 = 0.981
==== e(   2) =   -11.38251 eV ==== 
     psi = 0.229*[#   4]+0.229*[#   8]+0.147*[#   3]+0.147*[#   7]+0.120*[#   1]
          +0.120*[#   5]
    |psi|^2 = 0.992
==== e(   3) =    -9.04408 eV ==== 
     psi = 0.297*[#   3]+0.297*[#   7]+0.173*[#   4]+0.173*[#   8]+0.026*[#   1]
          +0.026*[#   5]
    |psi|^2 = 0.992
==== e(   4) =    -7.01269 eV ==== 
     psi = 0.495*[#   2]+0.495*[#   6]
    |psi|^2 = 0.991
==== e(   5) =     2.86729 eV ==== 
     psi = 0.478*[#   2]+0.478*[#   6]
    |psi|^2 = 0.956
==== e(   6) =     4.37855 eV ==== 
     psi = 0.007*[#   4]+0.007*[#   8]+0.003*[#   3]+0.003*[#   7]
    |psi|^2 = 0.020
==== e(   7) =     5.11052 eV ==== 
     psi = 0.003*[#   2]+0.003*[#   6]
    |psi|^2 = 0.006
==== e(   8) =     5.28610 eV ==== 
 
    |psi|^2 = 0.001

 k =   0.1250000000  0.4089564407  0.0000000000
==== e(   1) =   -18.71340 eV ==== 
     psi = 0.285*[#   1]+0.285*[#   5]+0.148*[#   4]+0.148*[#   8]+0.058*[#   3]
          +0.058*[#   7]
    |psi|^2 = 0.982
==== e(   2) =   -12.40800 eV ==== 
     psi = 0.213*[#   4]+0.213*[#   8]+0.148*[#   3]+0.148*[#   7]+0.135*[#   1]
          +0.135*[#   5]
    |psi|^2 = 0.991
==== e(   3) =    -9.38428 eV ==== 
     psi = 0.292*[#   3]+0.292*[#   7]+0.177*[#   4]+0.177*[#   8]+0.027*[#   1]
          +0.027*[#   5]
    |psi|^2 = 0.993
==== e(   4) =    -6.31951 eV ==== 
     psi = 0.497*[#   2]+0.497*[#   6]
    |psi|^2 = 0.994
==== e(   5) =     1.80285 eV ==== 
     psi = 0.479*[#   2]+0.479*[#   6]
    |psi|^2 = 0.957
==== e(   6) =     5.26291 eV ==== 
     psi = 0.004*[#   4]+0.004*[#   8]+0.001*[#   3]+0.001*[#   7]
    |psi|^2 = 0.012
==== e(   7) =     6.00333 eV ==== 
     psi = 0.002*[#   2]+0.002*[#   6]
    |psi|^2 = 0.005
==== e(   8) =     6.20135 eV ==== 
     psi = 0.004*[#   1]+0.004*[#   5]
    |psi|^2 = 0.011

 k =   0.1250000000  0.4570689631  0.0000000000
==== e(   1) =   -18.01854 eV ==== 
     psi = 0.272*[#   1]+0.272*[#   5]+0.157*[#   4]+0.157*[#   8]+0.064*[#   3]
          +0.064*[#   7]
    |psi|^2 = 0.984
==== e(   2) =   -13.41915 eV ==== 
     psi = 0.201*[#   4]+0.201*[#   8]+0.147*[#   3]+0.147*[#   7]+0.146*[#   1]
          +0.146*[#   5]
    |psi|^2 = 0.989
==== e(   3) =    -9.64010 eV ==== 
     psi = 0.290*[#   3]+0.290*[#   7]+0.178*[#   4]+0.178*[#   8]+0.028*[#   1]
          +0.028*[#   5]
    |psi|^2 = 0.993
==== e(   4) =    -5.59719 eV ==== 
     psi = 0.498*[#   2]+0.498*[#   6]
    |psi|^2 = 0.996
==== e(   5) =     0.78288 eV ==== 
     psi = 0.479*[#   2]+0.479*[#   6]
    |psi|^2 = 0.958
==== e(   6) =     6.24085 eV ==== 
     psi = 0.012*[#   1]+0.012*[#   5]+0.001*[#   3]+0.001*[#   7]
    |psi|^2 = 0.028
==== e(   7) =     6.75142 eV ==== 
     psi = 0.262*[#   1]+0.262*[#   5]+0.083*[#   4]+0.083*[#   8]+0.070*[#   3]
          +0.070*[#   7]
    |psi|^2 = 0.830
==== e(   8) =     6.99750 eV ==== 
     psi = 0.002*[#   2]+0.002*[#   6]
    |psi|^2 = 0.003

 k =   0.1250000000  0.5051814855  0.0000000000
==== e(   1) =   -17.27405 eV ==== 
     psi = 0.265*[#   1]+0.265*[#   5]+0.160*[#   4]+0.160*[#   8]+0.068*[#   3]
          +0.068*[#   7]
    |psi|^2 = 0.986
==== e(   2) =   -14.38268 eV ==== 
     psi = 0.195*[#   4]+0.195*[#   8]+0.152*[#   1]+0.152*[#   5]+0.147*[#   3]
          +0.147*[#   7]
    |psi|^2 = 0.986
==== e(   3) =    -9.81118 eV ==== 
     psi = 0.290*[#   3]+0.290*[#   7]+0.178*[#   4]+0.178*[#   8]+0.029*[#   1]
          +0.029*[#   5]
    |psi|^2 = 0.993
==== e(   4) =    -4.91581 eV ==== 
     psi = 0.498*[#   2]+0.498*[#   6]
    |psi|^2 = 0.997
==== e(   5) =    -0.10628 eV ==== 
     psi = 0.479*[#   2]+0.479*[#   6]
    |psi|^2 = 0.959
==== e(   6) =     6.63776 eV ==== 
     psi = 0.286*[#   1]+0.286*[#   5]+0.071*[#   4]+0.071*[#   8]+0.060*[#   3]
          +0.060*[#   7]
    |psi|^2 = 0.836
==== e(   7) =     7.36837 eV ==== 
     psi = 0.006*[#   4]+0.006*[#   8]+0.005*[#   1]+0.005*[#   5]+0.004*[#   3]
          +0.004*[#   7]
    |psi|^2 = 0.029
==== e(   8) =     8.07540 eV ==== 
     psi = 0.002*[#   2]+0.002*[#   6]
    |psi|^2 = 0.004

 k =   0.1250000000  0.5532940080  0.0000000000
==== e(   1) =   -16.56468 eV ==== 
     psi = 0.284*[#   1]+0.284*[#   5]+0.142*[#   4]+0.142*[#   8]+0.070*[#   3]
          +0.070*[#   7]
    |psi|^2 = 0.991
==== e(   2) =   -15.20387 eV ==== 
     psi = 0.210*[#   4]+0.210*[#   8]+0.148*[#   3]+0.148*[#   7]+0.133*[#   1]
          +0.133*[#   5]
    |psi|^2 = 0.982
==== e(   3) =    -9.89689 eV ==== 
     psi = 0.290*[#   3]+0.290*[#   7]+0.177*[#   4]+0.177*[#   8]+0.029*[#   1]
          +0.029*[#   5]
    |psi|^2 = 0.993
==== e(   4) =    -4.44371 eV ==== 
     psi = 0.499*[#   2]+0.499*[#   6]
    |psi|^2 = 0.997
==== e(   5) =    -0.68514 eV ==== 
     psi = 0.479*[#   2]+0.479*[#   6]
    |psi|^2 = 0.958
==== e(   6) =     6.60364 eV ==== 
     psi = 0.298*[#   1]+0.298*[#   5]+0.073*[#   4]+0.073*[#   8]+0.057*[#   3]
          +0.057*[#   7]
    |psi|^2 = 0.856
==== e(   7) =     8.53951 eV ==== 
     psi = 0.003*[#   1]+0.003*[#   5]+0.002*[#   3]+0.002*[#   7]+0.002*[#   4]
          +0.002*[#   8]
    |psi|^2 = 0.012
==== e(   8) =     9.16453 eV ==== 
     psi = 0.005*[#   2]+0.005*[#   6]
    |psi|^2 = 0.010

 k =   0.1666666667  0.2886751346  0.0000000000
==== e(   1) =   -19.93979 eV ==== 
     psi = 0.324*[#   1]+0.324*[#   5]+0.124*[#   4]+0.124*[#   8]+0.042*[#   3]
          +0.042*[#   7]
    |psi|^2 = 0.981
==== e(   2) =   -10.13434 eV ==== 
     psi = 0.262*[#   4]+0.262*[#   8]+0.134*[#   3]+0.134*[#   7]+0.102*[#   1]
          +0.102*[#   5]
    |psi|^2 = 0.996
==== e(   3) =    -8.79730 eV ==== 
     psi = 0.315*[#   3]+0.315*[#   7]+0.152*[#   4]+0.152*[#   8]+0.027*[#   1]
          +0.027*[#   5]
    |psi|^2 = 0.989
==== e(   4) =    -7.69082 eV ==== 
     psi = 0.493*[#   2]+0.493*[#   6]
    |psi|^2 = 0.985
==== e(   5) =     3.54527 eV ==== 
     psi = 0.011*[#   4]+0.011*[#   8]+0.004*[#   3]+0.004*[#   7]
    |psi|^2 = 0.029
==== e(   6) =     4.04925 eV ==== 
     psi = 0.483*[#   2]+0.483*[#   6]
    |psi|^2 = 0.966
==== e(   7) =     4.26178 eV ==== 
     psi = 0.002*[#   2]+0.002*[#   6]
    |psi|^2 = 0.005
==== e(   8) =     4.42901 eV ==== 
 
    |psi|^2 = 0.002

 k =   0.1666666667  0.3367876570  0.0000000000
==== e(   1) =   -19.42210 eV ==== 
     psi = 0.305*[#   1]+0.305*[#   5]+0.138*[#   4]+0.138*[#   8]+0.048*[#   3]
          +0.048*[#   7]
    |psi|^2 = 0.981
==== e(   2) =   -10.94895 eV ==== 
     psi = 0.243*[#   4]+0.243*[#   8]+0.137*[#   3]+0.137*[#   7]+0.118*[#   1]
          +0.118*[#   5]
    |psi|^2 = 0.995
==== e(   3) =    -9.39221 eV ==== 
     psi = 0.305*[#   3]+0.305*[#   7]+0.158*[#   4]+0.158*[#   8]+0.031*[#   1]
          +0.031*[#   5]
    |psi|^2 = 0.989
==== e(   4) =    -7.09782 eV ==== 
     psi = 0.495*[#   2]+0.495*[#   6]
    |psi|^2 = 0.990
==== e(   5) =     3.08912 eV ==== 
     psi = 0.483*[#   2]+0.483*[#   6]
    |psi|^2 = 0.967
==== e(   6) =     4.26850 eV ==== 
     psi = 0.008*[#   8]+0.008*[#   4]+0.003*[#   3]+0.003*[#   7]
    |psi|^2 = 0.022
==== e(   7) =     4.98928 eV ==== 
     psi = 0.002*[#   2]+0.002*[#   6]
    |psi|^2 = 0.004
==== e(   8) =     5.17208 eV ==== 
 
    |psi|^2 = 0.001

 k =   0.1666666667  0.3849001795  0.0000000000
==== e(   1) =   -18.83120 eV ==== 
     psi = 0.287*[#   1]+0.287*[#   5]+0.150*[#   4]+0.150*[#   8]+0.054*[#   3]
          +0.054*[#   7]
    |psi|^2 = 0.982
==== e(   2) =   -11.86164 eV ==== 
     psi = 0.221*[#   4]+0.221*[#   8]+0.144*[#   3]+0.144*[#   7]+0.132*[#   1]
          +0.132*[#   5]
    |psi|^2 = 0.993
==== e(   3) =    -9.85372 eV ==== 
     psi = 0.294*[#   3]+0.294*[#   7]+0.166*[#   4]+0.166*[#   8]+0.035*[#   1]
          +0.035*[#   5]
    |psi|^2 = 0.990
==== e(   4) =    -6.43561 eV ==== 
     psi = 0.497*[#   2]+0.497*[#   6]
    |psi|^2 = 0.994
==== e(   5) =     2.09722 eV ==== 
     psi = 0.484*[#   2]+0.484*[#   6]
    |psi|^2 = 0.967
==== e(   6) =     5.09953 eV ==== 
     psi = 0.006*[#   4]+0.006*[#   8]+0.002*[#   3]+0.002*[#   7]
    |psi|^2 = 0.015
==== e(   7) =     5.82215 eV ==== 
     psi = 0.001*[#   2]+0.001*[#   6]
    |psi|^2 = 0.003
==== e(   8) =     6.02885 eV ==== 
 
    |psi|^2 = 0.001

 k =   0.1666666667  0.4330127019  0.0000000000
==== e(   1) =   -18.17190 eV ==== 
     psi = 0.272*[#   1]+0.272*[#   5]+0.160*[#   4]+0.160*[#   8]+0.060*[#   3]
          +0.060*[#   7]
    |psi|^2 = 0.983
==== e(   2) =   -12.81996 eV ==== 
     psi = 0.204*[#   4]+0.204*[#   8]+0.148*[#   3]+0.148*[#   7]+0.144*[#   1]
          +0.144*[#   5]
    |psi|^2 = 0.991
==== e(   3) =   -10.19394 eV ==== 
     psi = 0.286*[#   3]+0.286*[#   7]+0.171*[#   4]+0.171*[#   8]+0.038*[#   1]
          +0.038*[#   5]
    |psi|^2 = 0.991
==== e(   4) =    -5.72427 eV ==== 
     psi = 0.498*[#   2]+0.498*[#   6]
    |psi|^2 = 0.996
==== e(   5) =     1.10892 eV ==== 
     psi = 0.484*[#   2]+0.484*[#   6]
    |psi|^2 = 0.968
==== e(   6) =     6.03524 eV ==== 
     psi = 0.003*[#   4]+0.003*[#   8]+0.001*[#   3]+0.001*[#   7]
    |psi|^2 = 0.010
==== e(   7) =     6.75216 eV ==== 
     psi = 0.001*[#   2]+0.001*[#   6]
    |psi|^2 = 0.002
==== e(   8) =     7.00015 eV ==== 
     psi = 0.002*[#   1]+0.002*[#   5]
    |psi|^2 = 0.004

 k =   0.1666666667  0.4811252243  0.0000000000
==== e(   1) =   -17.45402 eV ==== 
     psi = 0.262*[#   1]+0.262*[#   5]+0.166*[#   4]+0.166*[#   8]+0.065*[#   3]
          +0.065*[#   7]
    |psi|^2 = 0.985
==== e(   2) =   -13.77401 eV ==== 
     psi = 0.192*[#   4]+0.192*[#   8]+0.153*[#   1]+0.153*[#   5]+0.150*[#   3]
          +0.150*[#   7]
    |psi|^2 = 0.989
==== e(   3) =   -10.42912 eV ==== 
     psi = 0.283*[#   3]+0.283*[#   7]+0.173*[#   4]+0.173*[#   8]+0.040*[#   1]
          +0.040*[#   5]
    |psi|^2 = 0.991
==== e(   4) =    -5.00626 eV ==== 
     psi = 0.498*[#   2]+0.498*[#   6]
    |psi|^2 = 0.996
==== e(   5) =     0.18086 eV ==== 
     psi = 0.484*[#   2]+0.484*[#   6]
    |psi|^2 = 0.968
==== e(   6) =     7.06509 eV ==== 
     psi = 0.008*[#   1]+0.008*[#   5]+0.001*[#   3]+0.001*[#   7]
    |psi|^2 = 0.020
==== e(   7) =     7.71490 eV ==== 
     psi = 0.252*[#   1]+0.252*[#   5]+0.082*[#   4]+0.082*[#   8]+0.074*[#   3]
          +0.074*[#   7]
    |psi|^2 = 0.814
==== e(   8) =     7.75810 eV ==== 
     psi = 0.001*[#   2]+0.001*[#   6]
    |psi|^2 = 0.004

 k =   0.1666666667  0.5292377468  0.0000000000
==== e(   1) =   -16.71045 eV ==== 
     psi = 0.263*[#   1]+0.263*[#   5]+0.162*[#   4]+0.162*[#   8]+0.070*[#   3]
          +0.070*[#   7]
    |psi|^2 = 0.988
==== e(   2) =   -14.66717 eV ==== 
     psi = 0.191*[#   4]+0.191*[#   8]+0.151*[#   1]+0.151*[#   3]+0.151*[#   5]
          +0.151*[#   7]
    |psi|^2 = 0.986
==== e(   3) =   -10.56784 eV ==== 
     psi = 0.281*[#   3]+0.281*[#   7]+0.174*[#   4]+0.174*[#   8]+0.041*[#   1]
          +0.041*[#   5]
    |psi|^2 = 0.991
==== e(   4) =    -4.38698 eV ==== 
     psi = 0.498*[#   2]+0.498*[#   6]
    |psi|^2 = 0.997
==== e(   5) =    -0.56971 eV ==== 
     psi = 0.484*[#   2]+0.484*[#   6]
    |psi|^2 = 0.967
==== e(   6) =     7.62502 eV ==== 
     psi = 0.268*[#   1]+0.268*[#   5]+0.073*[#   4]+0.073*[#   8]+0.065*[#   7]
          +0.065*[#   3]
    |psi|^2 = 0.813
==== e(   7) =     8.22353 eV ==== 
     psi = 0.006*[#   1]+0.006*[#   5]+0.005*[#   4]+0.005*[#   8]+0.004*[#   3]
          +0.004*[#   7]
    |psi|^2 = 0.029
==== e(   8) =     8.74016 eV ==== 
     psi = 0.004*[#   2]+0.004*[#   6]
    |psi|^2 = 0.008

 k =   0.1666666667  0.5773502692  0.0000000000
==== e(   1) =   -16.21545 eV ==== 
     psi = 0.291*[#   1]+0.291*[#   5]+0.118*[#   4]+0.118*[#   8]+0.087*[#   3]
          +0.087*[#   7]
    |psi|^2 = 0.993
==== e(   2) =   -15.21328 eV ==== 
     psi = 0.231*[#   4]+0.231*[#   8]+0.138*[#   3]+0.138*[#   7]+0.122*[#   1]
          +0.122*[#   5]
    |psi|^2 = 0.981
==== e(   3) =   -10.61371 eV ==== 
     psi = 0.281*[#   3]+0.281*[#   7]+0.174*[#   4]+0.174*[#   8]+0.041*[#   1]
          +0.041*[#   5]
    |psi|^2 = 0.991
==== e(   4) =    -4.11174 eV ==== 
     psi = 0.499*[#   2]+0.499*[#   6]
    |psi|^2 = 0.997
==== e(   5) =    -0.88961 eV ==== 
     psi = 0.483*[#   2]+0.483*[#   6]
    |psi|^2 = 0.967
==== e(   6) =     7.61141 eV ==== 
     psi = 0.276*[#   1]+0.276*[#   5]+0.077*[#   4]+0.077*[#   8]+0.062*[#   3]
          +0.063*[#   7]
    |psi|^2 = 0.832
==== e(   7) =     9.26460 eV ==== 
     psi = 0.008*[#   2]+0.008*[#   6]
    |psi|^2 = 0.016
==== e(   8) =     9.32103 eV ==== 
     psi = 0.011*[#   1]+0.011*[#   5]+0.002*[#   3]+0.002*[#   4]+0.002*[#   7]
          +0.002*[#   8]
    |psi|^2 = 0.032

 k =   0.2083333333  0.3608439182  0.0000000000
==== e(   1) =   -18.87058 eV ==== 
     psi = 0.288*[#   1]+0.288*[#   5]+0.151*[#   4]+0.151*[#   8]+0.052*[#   3]
          +0.052*[#   7]
    |psi|^2 = 0.982
==== e(   2) =   -11.58788 eV ==== 
     psi = 0.231*[#   4]+0.231*[#   8]+0.134*[#   1]+0.134*[#   5]+0.133*[#   3]
          +0.133*[#   7]
    |psi|^2 = 0.995
==== e(   3) =   -10.10579 eV ==== 
     psi = 0.304*[#   3]+0.304*[#   7]+0.155*[#   4]+0.155*[#   8]+0.034*[#   1]
          +0.034*[#   5]
    |psi|^2 = 0.988
==== e(   4) =    -6.47467 eV ==== 
     psi = 0.497*[#   2]+0.497*[#   6]
    |psi|^2 = 0.993
==== e(   5) =     2.20487 eV ==== 
     psi = 0.486*[#   2]+0.486*[#   6]
    |psi|^2 = 0.972
==== e(   6) =     5.04468 eV ==== 
     psi = 0.006*[#   4]+0.006*[#   8]+0.002*[#   3]+0.002*[#   7]
    |psi|^2 = 0.016
==== e(   7) =     5.76065 eV ==== 
 
    |psi|^2 = 0.002
==== e(   8) =     5.97203 eV ==== 
 
    |psi|^2 = 0.001

 k =   0.2083333333  0.4089564407  0.0000000000
==== e(   1) =   -18.24912 eV ==== 
     psi = 0.273*[#   1]+0.273*[#   5]+0.161*[#   4]+0.161*[#   8]+0.057*[#   3]
          +0.057*[#   7]
    |psi|^2 = 0.983
==== e(   2) =   -12.34394 eV ==== 
     psi = 0.212*[#   4]+0.212*[#   8]+0.148*[#   1]+0.148*[#   5]+0.137*[#   3]
          +0.137*[#   7]
    |psi|^2 = 0.994
==== e(   3) =   -10.65737 eV ==== 
     psi = 0.296*[#   3]+0.296*[#   7]+0.160*[#   4]+0.160*[#   8]+0.037*[#   1]
          +0.037*[#   5]
    |psi|^2 = 0.988
==== e(   4) =    -5.78981 eV ==== 
     psi = 0.498*[#   2]+0.498*[#   6]
    |psi|^2 = 0.995
==== e(   5) =     1.29690 eV ==== 
     psi = 0.488*[#   2]+0.488*[#   6]
    |psi|^2 = 0.975
==== e(   6) =     5.92655 eV ==== 
     psi = 0.004*[#   4]+0.004*[#   8]+0.001*[#   3]+0.001*[#   7]
    |psi|^2 = 0.011
==== e(   7) =     6.62607 eV ==== 
 
    |psi|^2 = 0.001
==== e(   8) =     6.88579 eV ==== 
 
    |psi|^2 = 0.001

 k =   0.2083333333  0.4570689631  0.0000000000
==== e(   1) =   -17.56475 eV ==== 
     psi = 0.260*[#   1]+0.260*[#   5]+0.169*[#   4]+0.169*[#   8]+0.063*[#   3]
          +0.063*[#   7]
    |psi|^2 = 0.985
==== e(   2) =   -13.19512 eV ==== 
     psi = 0.194*[#   4]+0.194*[#   8]+0.158*[#   1]+0.158*[#   5]+0.144*[#   3]
          +0.144*[#   7]
    |psi|^2 = 0.992
==== e(   3) =   -11.02921 eV ==== 
     psi = 0.286*[#   3]+0.286*[#   7]+0.167*[#   4]+0.167*[#   8]+0.042*[#   1]
          +0.042*[#   5]
    |psi|^2 = 0.988
==== e(   4) =    -5.06850 eV ==== 
     psi = 0.498*[#   2]+0.498*[#   6]
    |psi|^2 = 0.996
==== e(   5) =     0.39813 eV ==== 
     psi = 0.488*[#   2]+0.488*[#   6]
    |psi|^2 = 0.977
==== e(   6) =     6.90903 eV ==== 
     psi = 0.002*[#   1]+0.002*[#   4]+0.002*[#   5]+0.002*[#   8]
    |psi|^2 = 0.008
==== e(   7) =     7.55097 eV ==== 
 
    |psi|^2 = 0.001
==== e(   8) =     7.91339 eV ==== 
     psi = 0.001*[#   1]+0.001*[#   5]
    |psi|^2 = 0.004

 k =   0.2083333333  0.5051814855  0.0000000000
==== e(   1) =   -16.83432 eV ==== 
     psi = 0.253*[#   1]+0.253*[#   5]+0.172*[#   4]+0.172*[#   8]+0.069*[#   3]
          +0.069*[#   7]
    |psi|^2 = 0.987
==== e(   2) =   -14.06855 eV ==== 
     psi = 0.183*[#   4]+0.183*[#   8]+0.162*[#   1]+0.162*[#   5]+0.150*[#   3]
          +0.150*[#   7]
    |psi|^2 = 0.989
==== e(   3) =   -11.25586 eV ==== 
     psi = 0.279*[#   3]+0.279*[#   7]+0.170*[#   4]+0.170*[#   8]+0.045*[#   1]
          +0.045*[#   5]
    |psi|^2 = 0.989
==== e(   4) =    -4.36950 eV ==== 
     psi = 0.498*[#   2]+0.498*[#   6]
    |psi|^2 = 0.996
==== e(   5) =    -0.42502 eV ==== 
     psi = 0.488*[#   2]+0.488*[#   6]
    |psi|^2 = 0.977
==== e(   6) =     7.97884 eV ==== 
     psi = 0.008*[#   1]+0.008*[#   5]+0.002*[#   3]+0.002*[#   7]
    |psi|^2 = 0.020
==== e(   7) =     8.40659 eV ==== 
     psi = 0.002*[#   2]+0.002*[#   6]
    |psi|^2 = 0.004
==== e(   8) =     8.79909 eV ==== 
     psi = 0.234*[#   1]+0.234*[#   5]+0.079*[#   4]+0.079*[#   8]+0.074*[#   3]
          +0.074*[#   7]
    |psi|^2 = 0.773

 k =   0.2083333333  0.5532940080  0.0000000000
==== e(   1) =   -16.14085 eV ==== 
     psi = 0.265*[#   1]+0.265*[#   5]+0.153*[#   4]+0.153*[#   8]+0.078*[#   3]
          +0.078*[#   7]
    |psi|^2 = 0.991
==== e(   2) =   -14.84194 eV ==== 
     psi = 0.195*[#   4]+0.195*[#   8]+0.149*[#   3]+0.149*[#   7]+0.148*[#   1]
          +0.148*[#   5]
    |psi|^2 = 0.985
==== e(   3) =   -11.36379 eV ==== 
     psi = 0.275*[#   3]+0.275*[#   7]+0.173*[#   4]+0.173*[#   8]+0.047*[#   1]
          +0.047*[#   5]
    |psi|^2 = 0.989
==== e(   4) =    -3.85721 eV ==== 
     psi = 0.498*[#   2]+0.498*[#   6]
    |psi|^2 = 0.997
==== e(   5) =    -1.00142 eV ==== 
     psi = 0.488*[#   2]+0.488*[#   6]
    |psi|^2 = 0.976
==== e(   6) =     8.72337 eV ==== 
     psi = 0.245*[#   1]+0.245*[#   5]+0.074*[#   4]+0.074*[#   8]+0.066*[#   3]
          +0.066*[#   7]
    |psi|^2 = 0.770
==== e(   7) =     8.86873 eV ==== 
     psi = 0.005*[#   2]+0.005*[#   6]
    |psi|^2 = 0.010
==== e(   8) =     9.15110 eV ==== 
     psi = 0.012*[#   1]+0.012*[#   5]+0.006*[#   3]+0.006*[#   7]+0.005*[#   4]
          +0.006*[#   8]
    |psi|^2 = 0.047

 k =   0.2500000000  0.4330127019  0.0000000000
==== e(   1) =   -17.60204 eV ==== 
     psi = 0.260*[#   1]+0.260*[#   5]+0.170*[#   4]+0.170*[#   8]+0.062*[#   3]
          +0.062*[#   7]
    |psi|^2 = 0.985
==== e(   2) =   -12.89433 eV ==== 
     psi = 0.198*[#   4]+0.198*[#   8]+0.167*[#   1]+0.167*[#   5]+0.132*[#   3]
          +0.132*[#   7]
    |psi|^2 = 0.994
==== e(   3) =   -11.33971 eV ==== 
     psi = 0.298*[#   3]+0.298*[#   7]+0.161*[#   4]+0.161*[#   8]+0.034*[#   1]
          +0.034*[#   5]
    |psi|^2 = 0.986
==== e(   4) =    -5.09054 eV ==== 
     psi = 0.498*[#   2]+0.498*[#   6]
    |psi|^2 = 0.996
==== e(   5) =     0.47965 eV ==== 
     psi = 0.490*[#   2]+0.490*[#   6]
    |psi|^2 = 0.980
==== e(   6) =     6.85492 eV ==== 
     psi = 0.002*[#   4]+0.002*[#   8]+0.001*[#   1]+0.001*[#   5]
    |psi|^2 = 0.008
==== e(   7) =     7.47896 eV ==== 
 
    |psi|^2 = 0.000
==== e(   8) =     7.85562 eV ==== 
 
    |psi|^2 = 0.001

 k =   0.2500000000  0.4811252243  0.0000000000
==== e(   1) =   -16.90087 eV ==== 
     psi = 0.250*[#   1]+0.250*[#   5]+0.176*[#   4]+0.176*[#   8]+0.068*[#   3]
          +0.068*[#   7]
    |psi|^2 = 0.987
==== e(   2) =   -13.57033 eV ==== 
     psi = 0.182*[#   4]+0.182*[#   8]+0.178*[#   1]+0.178*[#   5]+0.136*[#   3]
          +0.136*[#   7]
    |psi|^2 = 0.993
==== e(   3) =   -11.80196 eV ==== 
     psi = 0.290*[#   3]+0.290*[#   7]+0.167*[#   4]+0.167*[#   8]+0.035*[#   1]
          +0.035*[#   5]
    |psi|^2 = 0.986
==== e(   4) =    -4.36774 eV ==== 
     psi = 0.498*[#   2]+0.498*[#   6]
    |psi|^2 = 0.996
==== e(   5) =    -0.32719 eV ==== 
     psi = 0.492*[#   2]+0.492*[#   6]
    |psi|^2 = 0.983
==== e(   6) =     7.87476 eV ==== 
     psi = 0.004*[#   1]+0.004*[#   5]+0.001*[#   3]+0.001*[#   7]
    |psi|^2 = 0.011
==== e(   7) =     8.21692 eV ==== 
 
    |psi|^2 = 0.001
==== e(   8) =     8.93769 eV ==== 
 
    |psi|^2 = 0.003

 k =   0.2500000000  0.5292377468  0.0000000000
==== e(   1) =   -16.17784 eV ==== 
     psi = 0.247*[#   1]+0.247*[#   5]+0.172*[#   4]+0.172*[#   8]+0.076*[#   3]
          +0.076*[#   7]
    |psi|^2 = 0.990
==== e(   2) =   -14.31784 eV ==== 
     psi = 0.178*[#   1]+0.178*[#   5]+0.173*[#   4]+0.173*[#   8]+0.144*[#   3]
          +0.144*[#   7]
    |psi|^2 = 0.990
==== e(   3) =   -12.04674 eV ==== 
     psi = 0.279*[#   3]+0.279*[#   7]+0.174*[#   4]+0.174*[#   8]+0.040*[#   1]
          +0.040*[#   5]
    |psi|^2 = 0.986
==== e(   4) =    -3.70216 eV ==== 
     psi = 0.498*[#   2]+0.498*[#   6]
    |psi|^2 = 0.996
==== e(   5) =    -1.04359 eV ==== 
     psi = 0.492*[#   2]+0.492*[#   6]
    |psi|^2 = 0.985
==== e(   6) =     8.53526 eV ==== 
     psi = 0.002*[#   2]+0.002*[#   6]
    |psi|^2 = 0.003
==== e(   7) =     8.95871 eV ==== 
     psi = 0.013*[#   1]+0.013*[#   5]+0.004*[#   3]+0.004*[#   7]+0.002*[#   4]
          +0.002*[#   8]
    |psi|^2 = 0.036
==== e(   8) =     9.87453 eV ==== 
     psi = 0.215*[#   1]+0.215*[#   5]+0.073*[#   4]+0.073*[#   8]+0.071*[#   3]
          +0.071*[#   7]
    |psi|^2 = 0.718

 k =   0.2500000000  0.5773502692  0.0000000000
==== e(   1) =   -15.69055 eV ==== 
     psi = 0.265*[#   1]+0.265*[#   5]+0.124*[#   4]+0.124*[#   8]+0.107*[#   3]
          +0.107*[#   7]
    |psi|^2 = 0.993
==== e(   2) =   -14.82090 eV ==== 
     psi = 0.208*[#   4]+0.208*[#   8]+0.158*[#   1]+0.158*[#   5]+0.127*[#   3]
          +0.127*[#   7]
    |psi|^2 = 0.987
==== e(   3) =   -12.12183 eV ==== 
     psi = 0.269*[#   3]+0.269*[#   7]+0.182*[#   4]+0.182*[#   8]+0.042*[#   1]
          +0.042*[#   5]
    |psi|^2 = 0.986
==== e(   4) =    -3.36940 eV ==== 
     psi = 0.498*[#   2]+0.498*[#   6]
    |psi|^2 = 0.996
==== e(   5) =    -1.39341 eV ==== 
     psi = 0.492*[#   2]+0.492*[#   6]
    |psi|^2 = 0.984
==== e(   6) =     8.57951 eV ==== 
     psi = 0.002*[#   2]+0.002*[#   6]
    |psi|^2 = 0.005
==== e(   7) =     9.78156 eV ==== 
     psi = 0.216*[#   1]+0.216*[#   5]+0.069*[#   4]+0.068*[#   8]+0.063*[#   7]
          +0.063*[#   3]
    |psi|^2 = 0.695
==== e(   8) =     9.94949 eV ==== 
     psi = 0.031*[#   1]+0.031*[#   5]+0.009*[#   3]+0.009*[#   7]+0.009*[#   4]
          +0.009*[#   8]
    |psi|^2 = 0.099

 k =   0.2916666667  0.5051814855  0.0000000000
==== e(   1) =   -16.19851 eV ==== 
     psi = 0.242*[#   1]+0.242*[#   5]+0.177*[#   4]+0.177*[#   8]+0.076*[#   3]
          +0.076*[#   7]
    |psi|^2 = 0.989
==== e(   2) =   -14.02278 eV ==== 
     psi = 0.201*[#   1]+0.201*[#   5]+0.165*[#   4]+0.165*[#   8]+0.131*[#   3]
          +0.131*[#   7]
    |psi|^2 = 0.994
==== e(   3) =   -12.38856 eV ==== 
     psi = 0.291*[#   3]+0.291*[#   7]+0.177*[#   4]+0.177*[#   8]+0.023*[#   1]
          +0.023*[#   5]
    |psi|^2 = 0.983
==== e(   4) =    -3.65101 eV ==== 
     psi = 0.498*[#   2]+0.498*[#   6]
    |psi|^2 = 0.995
==== e(   5) =    -1.05166 eV ==== 
     psi = 0.494*[#   2]+0.494*[#   6]
    |psi|^2 = 0.988
==== e(   6) =     8.41124 eV ==== 
 
    |psi|^2 = 0.001
==== e(   7) =     8.90846 eV ==== 
     psi = 0.010*[#   1]+0.010*[#   5]+0.003*[#   3]+0.003*[#   7]+0.001*[#   4]
          +0.001*[#   8]
    |psi|^2 = 0.029
==== e(   8) =    10.07607 eV ==== 
     psi = 0.002*[#   1]+0.002*[#   5]
    |psi|^2 = 0.006

 k =   0.2916666667  0.5532940080  0.0000000000
==== e(   1) =   -15.52425 eV ==== 
     psi = 0.243*[#   1]+0.243*[#   5]+0.160*[#   4]+0.160*[#   8]+0.093*[#   3]
          +0.093*[#   7]
    |psi|^2 = 0.992
==== e(   2) =   -14.57465 eV ==== 
     psi = 0.205*[#   1]+0.205*[#   5]+0.157*[#   4]+0.157*[#   8]+0.133*[#   3]
          +0.133*[#   7]
    |psi|^2 = 0.992
==== e(   3) =   -12.68326 eV ==== 
     psi = 0.277*[#   3]+0.277*[#   7]+0.196*[#   4]+0.196*[#   8]+0.018*[#   1]
          +0.018*[#   5]
    |psi|^2 = 0.982
==== e(   4) =    -3.02131 eV ==== 
     psi = 0.497*[#   2]+0.497*[#   6]
    |psi|^2 = 0.995
==== e(   5) =    -1.68254 eV ==== 
     psi = 0.495*[#   2]+0.495*[#   6]
    |psi|^2 = 0.990
==== e(   6) =     8.36423 eV ==== 
 
    |psi|^2 = 0.001
==== e(   7) =     9.92649 eV ==== 
     psi = 0.036*[#   1]+0.036*[#   5]+0.012*[#   3]+0.012*[#   7]+0.008*[#   4]
          +0.008*[#   8]
    |psi|^2 = 0.111
==== e(   8) =    10.56440 eV ==== 
     psi = 0.159*[#   1]+0.159*[#   5]+0.052*[#   3]+0.052*[#   7]+0.048*[#   8]
          +0.048*[#   4]
    |psi|^2 = 0.519

 k =   0.3333333333  0.5773502692  0.0000000000
==== e(   1) =   -14.95921 eV ==== 
     psi = 0.234*[#   1]+0.234*[#   5]+0.131*[#   3]+0.131*[#   7]+0.131*[#   4]
          +0.131*[#   8]
    |psi|^2 = 0.993
==== e(   2) =   -14.95715 eV ==== 
     psi = 0.234*[#   1]+0.234*[#   5]+0.131*[#   3]+0.131*[#   4]+0.131*[#   7]
          +0.131*[#   8]
    |psi|^2 = 0.993
==== e(   3) =   -12.94729 eV ==== 
     psi = 0.245*[#   4]+0.245*[#   8]+0.245*[#   3]+0.245*[#   7]
    |psi|^2 = 0.979
==== e(   4) =    -2.34387 eV ==== 
     psi = 0.497*[#   2]+0.497*[#   6]
    |psi|^2 = 0.993
==== e(   5) =    -2.34370 eV ==== 
     psi = 0.497*[#   2]+0.497*[#   6]
    |psi|^2 = 0.993
==== e(   6) =     8.27854 eV ==== 
 
    |psi|^2 = 0.000
==== e(   7) =    10.54744 eV ==== 
     psi = 0.099*[#   1]+0.099*[#   5]+0.031*[#   3]+0.031*[#   4]+0.031*[#   7]
          +0.031*[#   8]
    |psi|^2 = 0.323
==== e(   8) =    10.54871 eV ==== 
     psi = 0.099*[#   1]+0.099*[#   5]+0.032*[#   8]+0.031*[#   3]+0.031*[#   4]
          +0.031*[#   7]
    |psi|^2 = 0.322

 k =  -0.0416666667  0.0240562612  0.0000000000
==== e(   1) =   -21.84579 eV ==== 
     psi = 0.484*[#   1]+0.484*[#   5]+0.006*[#   3]+0.006*[#   7]+0.002*[#   4]
          +0.002*[#   8]
    |psi|^2 = 0.983
==== e(   2) =    -9.93652 eV ==== 
     psi = 0.473*[#   2]+0.473*[#   6]
    |psi|^2 = 0.947
==== e(   3) =    -5.58641 eV ==== 
     psi = 0.371*[#   3]+0.371*[#   7]+0.124*[#   4]+0.124*[#   8]+0.004*[#   1]
          +0.004*[#   5]
    |psi|^2 = 0.997
==== e(   4) =    -5.50688 eV ==== 
     psi = 0.374*[#   4]+0.374*[#   8]+0.125*[#   3]+0.125*[#   7]
    |psi|^2 = 0.997
==== e(   5) =     0.91871 eV ==== 
     psi = 0.003*[#   1]+0.003*[#   5]+0.002*[#   3]+0.002*[#   7]
    |psi|^2 = 0.011
==== e(   6) =     1.60739 eV ==== 
     psi = 0.009*[#   2]+0.009*[#   6]
    |psi|^2 = 0.017
==== e(   7) =     1.74200 eV ==== 
 
    |psi|^2 = 0.001
==== e(   8) =     2.74552 eV ==== 
     psi = 0.007*[#   2]+0.007*[#   6]
    |psi|^2 = 0.014

 k =  -0.0833333333  0.0481125224  0.0000000000
==== e(   1) =   -21.72278 eV ==== 
     psi = 0.464*[#   1]+0.464*[#   5]+0.021*[#   3]+0.021*[#   7]+0.007*[#   4]
          +0.007*[#   8]
    |psi|^2 = 0.983
==== e(   2) =    -9.78928 eV ==== 
     psi = 0.475*[#   2]+0.475*[#   6]
    |psi|^2 = 0.950
==== e(   3) =    -6.06692 eV ==== 
     psi = 0.361*[#   3]+0.361*[#   7]+0.120*[#   4]+0.120*[#   8]+0.017*[#   1]
          +0.017*[#   5]
    |psi|^2 = 0.997
==== e(   4) =    -5.75638 eV ==== 
     psi = 0.374*[#   4]+0.374*[#   8]+0.125*[#   3]+0.125*[#   7]
    |psi|^2 = 0.997
==== e(   5) =     1.08643 eV ==== 
     psi = 0.006*[#   3]+0.006*[#   7]+0.002*[#   4]+0.002*[#   8]+0.001*[#   1]
          +0.001*[#   5]
    |psi|^2 = 0.019
==== e(   6) =     1.77761 eV ==== 
     psi = 0.008*[#   2]+0.008*[#   6]
    |psi|^2 = 0.016
==== e(   7) =     1.91341 eV ==== 
 
    |psi|^2 = 0.002
==== e(   8) =     2.91412 eV ==== 
     psi = 0.007*[#   2]+0.007*[#   6]
    |psi|^2 = 0.013

 k =  -0.1250000000  0.0721687836  0.0000000000
==== e(   1) =   -21.51811 eV ==== 
     psi = 0.436*[#   1]+0.436*[#   5]+0.042*[#   3]+0.042*[#   7]+0.014*[#   4]
          +0.014*[#   8]
    |psi|^2 = 0.982
==== e(   2) =    -9.54495 eV ==== 
     psi = 0.478*[#   2]+0.478*[#   6]
    |psi|^2 = 0.956
==== e(   3) =    -6.79651 eV ==== 
     psi = 0.348*[#   3]+0.348*[#   7]+0.116*[#   4]+0.116*[#   8]+0.034*[#   1]
          +0.034*[#   5]
    |psi|^2 = 0.996
==== e(   4) =    -6.12120 eV ==== 
     psi = 0.374*[#   4]+0.374*[#   8]+0.125*[#   3]+0.125*[#   7]
    |psi|^2 = 0.997
==== e(   5) =     1.36612 eV ==== 
     psi = 0.010*[#   3]+0.010*[#   7]+0.003*[#   4]+0.003*[#   8]
    |psi|^2 = 0.028
==== e(   6) =     2.06113 eV ==== 
     psi = 0.007*[#   2]+0.007*[#   6]
    |psi|^2 = 0.014
==== e(   7) =     2.19920 eV ==== 
     psi = 0.001*[#   3]+0.001*[#   7]
    |psi|^2 = 0.003
==== e(   8) =     3.19680 eV ==== 
     psi = 0.006*[#   2]+0.006*[#   6]
    |psi|^2 = 0.012

 k =  -0.1666666667  0.0962250449  0.0000000000
==== e(   1) =   -21.23240 eV ==== 
     psi = 0.405*[#   1]+0.405*[#   5]+0.065*[#   3]+0.065*[#   7]+0.022*[#   4]
          +0.022*[#   8]
    |psi|^2 = 0.982
==== e(   2) =    -9.20529 eV ==== 
     psi = 0.481*[#   2]+0.481*[#   6]
    |psi|^2 = 0.963
==== e(   3) =    -7.70236 eV ==== 
     psi = 0.332*[#   3]+0.332*[#   7]+0.111*[#   4]+0.111*[#   8]+0.054*[#   1]
          +0.054*[#   5]
    |psi|^2 = 0.994
==== e(   4) =    -6.54979 eV ==== 
     psi = 0.374*[#   4]+0.374*[#   8]+0.125*[#   3]+0.125*[#   7]
    |psi|^2 = 0.997
==== e(   5) =     1.75759 eV ==== 
     psi = 0.013*[#   3]+0.013*[#   7]+0.004*[#   4]+0.004*[#   8]
    |psi|^2 = 0.035
==== e(   6) =     2.45758 eV ==== 
     psi = 0.006*[#   2]+0.006*[#   6]
    |psi|^2 = 0.012
==== e(   7) =     2.59933 eV ==== 
     psi = 0.001*[#   3]+0.001*[#   7]
    |psi|^2 = 0.004
==== e(   8) =     3.59283 eV ==== 
     psi = 0.005*[#   2]+0.005*[#   6]
    |psi|^2 = 0.010

 k =  -0.2083333333  0.1202813061  0.0000000000
==== e(   1) =   -20.86642 eV ==== 
     psi = 0.375*[#   1]+0.375*[#   5]+0.087*[#   3]+0.087*[#   7]+0.029*[#   4]
          +0.029*[#   8]
    |psi|^2 = 0.981
==== e(   2) =    -8.77312 eV ==== 
     psi = 0.485*[#   2]+0.485*[#   6]
    |psi|^2 = 0.971
==== e(   3) =    -8.72009 eV ==== 
     psi = 0.317*[#   3]+0.317*[#   7]+0.106*[#   4]+0.106*[#   8]+0.074*[#   1]
          +0.074*[#   5]
    |psi|^2 = 0.993
==== e(   4) =    -6.99758 eV ==== 
     psi = 0.374*[#   4]+0.374*[#   8]+0.125*[#   3]+0.125*[#   7]
    |psi|^2 = 0.997
==== e(   5) =     2.26043 eV ==== 
     psi = 0.013*[#   3]+0.013*[#   7]+0.004*[#   4]+0.004*[#   8]
    |psi|^2 = 0.036
==== e(   6) =     2.96581 eV ==== 
     psi = 0.005*[#   2]+0.005*[#   6]
    |psi|^2 = 0.010
==== e(   7) =     3.11382 eV ==== 
     psi = 0.001*[#   3]+0.001*[#   7]
    |psi|^2 = 0.003
==== e(   8) =     4.09741 eV ==== 
     psi = 0.004*[#   2]+0.004*[#   6]
    |psi|^2 = 0.009

 k =  -0.2500000000  0.1443375673  0.0000000000
==== e(   1) =   -20.42140 eV ==== 
     psi = 0.347*[#   1]+0.347*[#   5]+0.107*[#   3]+0.107*[#   7]+0.036*[#   4]
          +0.036*[#   8]
    |psi|^2 = 0.981
==== e(   2) =    -9.79942 eV ==== 
     psi = 0.302*[#   3]+0.302*[#   7]+0.101*[#   4]+0.101*[#   8]+0.094*[#   1]
          +0.094*[#   5]
    |psi|^2 = 0.992
==== e(   3) =    -8.25293 eV ==== 
     psi = 0.489*[#   2]+0.489*[#   6]
    |psi|^2 = 0.979
==== e(   4) =    -7.43077 eV ==== 
     psi = 0.374*[#   4]+0.374*[#   8]+0.125*[#   3]+0.125*[#   7]
    |psi|^2 = 0.997
==== e(   5) =     2.87403 eV ==== 
     psi = 0.012*[#   3]+0.012*[#   7]+0.004*[#   4]+0.004*[#   8]
    |psi|^2 = 0.031
==== e(   6) =     3.57975 eV ==== 
     psi = 0.007*[#   2]+0.007*[#   6]
    |psi|^2 = 0.014
==== e(   7) =     3.74240 eV ==== 
 
    |psi|^2 = 0.003
==== e(   8) =     4.66966 eV ==== 
     psi = 0.114*[#   2]+0.114*[#   6]
    |psi|^2 = 0.227

 k =  -0.2916666667  0.1683938285  0.0000000000
==== e(   1) =   -19.89904 eV ==== 
     psi = 0.323*[#   1]+0.323*[#   5]+0.125*[#   3]+0.125*[#   7]+0.042*[#   4]
          +0.042*[#   8]
    |psi|^2 = 0.981
==== e(   2) =   -10.90288 eV ==== 
     psi = 0.288*[#   3]+0.288*[#   7]+0.112*[#   1]+0.112*[#   5]+0.096*[#   4]
          +0.096*[#   8]
    |psi|^2 = 0.991
==== e(   3) =    -7.82545 eV ==== 
     psi = 0.374*[#   4]+0.374*[#   8]+0.125*[#   3]+0.125*[#   7]
    |psi|^2 = 0.996
==== e(   4) =    -7.65195 eV ==== 
     psi = 0.493*[#   2]+0.493*[#   6]
    |psi|^2 = 0.986
==== e(   5) =     3.59707 eV ==== 
     psi = 0.009*[#   3]+0.009*[#   7]+0.003*[#   4]+0.003*[#   8]
    |psi|^2 = 0.024
==== e(   6) =     3.71138 eV ==== 
     psi = 0.436*[#   2]+0.436*[#   6]
    |psi|^2 = 0.873
==== e(   7) =     4.36749 eV ==== 
     psi = 0.034*[#   2]+0.034*[#   6]
    |psi|^2 = 0.067
==== e(   8) =     4.48489 eV ==== 
 
    |psi|^2 = 0.002

 k =  -0.3333333333  0.1924500897  0.0000000000
==== e(   1) =   -19.30183 eV ==== 
     psi = 0.302*[#   1]+0.302*[#   5]+0.141*[#   3]+0.141*[#   7]+0.047*[#   4]
          +0.047*[#   8]
    |psi|^2 = 0.981
==== e(   2) =   -12.00260 eV ==== 
     psi = 0.275*[#   3]+0.275*[#   7]+0.128*[#   1]+0.128*[#   5]+0.092*[#   4]
          +0.092*[#   8]
    |psi|^2 = 0.990
==== e(   3) =    -8.16518 eV ==== 
     psi = 0.374*[#   4]+0.374*[#   8]+0.125*[#   3]+0.125*[#   7]
    |psi|^2 = 0.996
==== e(   4) =    -6.98253 eV ==== 
     psi = 0.495*[#   2]+0.495*[#   6]
    |psi|^2 = 0.991
==== e(   5) =     2.57672 eV ==== 
     psi = 0.467*[#   2]+0.467*[#   6]
    |psi|^2 = 0.934
==== e(   6) =     4.42446 eV ==== 
     psi = 0.003*[#   3]+0.003*[#   7]+0.003*[#   1]+0.003*[#   5]+0.001*[#   4]
          +0.001*[#   8]
    |psi|^2 = 0.014
==== e(   7) =     5.19673 eV ==== 
     psi = 0.005*[#   2]+0.005*[#   6]+0.002*[#   1]+0.002*[#   5]+0.001*[#   3]
          +0.001*[#   7]
    |psi|^2 = 0.017
==== e(   8) =     5.33457 eV ==== 
     psi = 0.169*[#   1]+0.169*[#   5]+0.064*[#   3]+0.064*[#   7]+0.021*[#   4]
          +0.021*[#   8]
    |psi|^2 = 0.508

 k =  -0.3750000000  0.2165063509  0.0000000000
==== e(   1) =   -18.63399 eV ==== 
     psi = 0.286*[#   1]+0.286*[#   5]+0.154*[#   3]+0.154*[#   7]+0.051*[#   4]
          +0.051*[#   8]
    |psi|^2 = 0.982
==== e(   2) =   -13.07666 eV ==== 
     psi = 0.265*[#   3]+0.265*[#   7]+0.141*[#   1]+0.141*[#   5]+0.088*[#   4]
          +0.088*[#   8]
    |psi|^2 = 0.988
==== e(   3) =    -8.43874 eV ==== 
     psi = 0.373*[#   4]+0.373*[#   8]+0.124*[#   3]+0.124*[#   7]
    |psi|^2 = 0.996
==== e(   4) =    -6.26797 eV ==== 
     psi = 0.497*[#   2]+0.497*[#   6]
    |psi|^2 = 0.994
==== e(   5) =     1.45444 eV ==== 
     psi = 0.470*[#   2]+0.470*[#   6]
    |psi|^2 = 0.940
==== e(   6) =     5.18602 eV ==== 
     psi = 0.223*[#   1]+0.223*[#   5]+0.052*[#   3]+0.052*[#   7]+0.017*[#   4]
          +0.017*[#   8]
    |psi|^2 = 0.584
==== e(   7) =     5.45316 eV ==== 
     psi = 0.085*[#   1]+0.085*[#   5]+0.053*[#   3]+0.053*[#   7]+0.018*[#   4]
          +0.018*[#   8]
    |psi|^2 = 0.311
==== e(   8) =     6.14149 eV ==== 
     psi = 0.003*[#   2]+0.003*[#   6]
    |psi|^2 = 0.005

 k =  -0.4166666667  0.2405626122  0.0000000000
==== e(   1) =   -17.90443 eV ==== 
     psi = 0.275*[#   1]+0.275*[#   5]+0.163*[#   3]+0.163*[#   7]+0.054*[#   4]
          +0.054*[#   8]
    |psi|^2 = 0.984
==== e(   2) =   -14.10399 eV ==== 
     psi = 0.257*[#   3]+0.257*[#   7]+0.151*[#   1]+0.151*[#   5]+0.086*[#   4]
          +0.086*[#   8]
    |psi|^2 = 0.986
==== e(   3) =    -8.63875 eV ==== 
     psi = 0.373*[#   4]+0.373*[#   8]+0.124*[#   3]+0.124*[#   7]
    |psi|^2 = 0.995
==== e(   4) =    -5.55732 eV ==== 
     psi = 0.498*[#   2]+0.498*[#   6]
    |psi|^2 = 0.996
==== e(   5) =     0.43710 eV ==== 
     psi = 0.472*[#   2]+0.472*[#   6]
    |psi|^2 = 0.944
==== e(   6) =     5.14711 eV ==== 
     psi = 0.323*[#   1]+0.323*[#   5]+0.084*[#   3]+0.084*[#   7]+0.028*[#   4]
          +0.028*[#   8]
    |psi|^2 = 0.870
==== e(   7) =     6.44116 eV ==== 
     psi = 0.008*[#   3]+0.008*[#   7]+0.003*[#   1]+0.003*[#   4]+0.003*[#   5]
          +0.003*[#   8]
    |psi|^2 = 0.026
==== e(   8) =     7.20507 eV ==== 
     psi = 0.002*[#   2]+0.002*[#   6]
    |psi|^2 = 0.004

 k =  -0.4583333333  0.2646188734  0.0000000000
==== e(   1) =   -17.14492 eV ==== 
     psi = 0.278*[#   1]+0.278*[#   5]+0.162*[#   3]+0.162*[#   7]+0.054*[#   4]
          +0.054*[#   8]
    |psi|^2 = 0.988
==== e(   2) =   -15.04504 eV ==== 
     psi = 0.259*[#   3]+0.259*[#   7]+0.146*[#   1]+0.146*[#   5]+0.086*[#   4]
          +0.086*[#   8]
    |psi|^2 = 0.983
==== e(   3) =    -8.76047 eV ==== 
     psi = 0.373*[#   4]+0.373*[#   8]+0.124*[#   3]+0.124*[#   7]
    |psi|^2 = 0.995
==== e(   4) =    -4.96369 eV ==== 
     psi = 0.499*[#   2]+0.499*[#   6]
    |psi|^2 = 0.997
==== e(   5) =    -0.34628 eV ==== 
     psi = 0.473*[#   2]+0.473*[#   6]
    |psi|^2 = 0.946
==== e(   6) =     5.08973 eV ==== 
     psi = 0.335*[#   1]+0.335*[#   5]+0.080*[#   3]+0.080*[#   7]+0.027*[#   4]
          +0.027*[#   8]
    |psi|^2 = 0.883
==== e(   7) =     7.58500 eV ==== 
     psi = 0.003*[#   3]+0.003*[#   7]+0.001*[#   1]+0.001*[#   4]+0.001*[#   5]
          +0.001*[#   8]
    |psi|^2 = 0.011
==== e(   8) =     8.36856 eV ==== 
     psi = 0.002*[#   2]+0.002*[#   6]
    |psi|^2 = 0.004

 k =   0.5000000000 -0.2886751346  0.0000000000
==== e(   1) =   -16.63475 eV ==== 
     psi = 0.316*[#   1]+0.316*[#   5]+0.135*[#   3]+0.135*[#   7]+0.045*[#   4]
          +0.045*[#   8]
    |psi|^2 = 0.993
==== e(   2) =   -15.61620 eV ==== 
     psi = 0.286*[#   3]+0.286*[#   7]+0.108*[#   1]+0.108*[#   5]+0.095*[#   4]
          +0.095*[#   8]
    |psi|^2 = 0.978
==== e(   3) =    -8.80131 eV ==== 
     psi = 0.373*[#   4]+0.373*[#   8]+0.124*[#   3]+0.124*[#   7]
    |psi|^2 = 0.995
==== e(   4) =    -4.71108 eV ==== 
     psi = 0.499*[#   2]+0.499*[#   6]
    |psi|^2 = 0.998
==== e(   5) =    -0.66312 eV ==== 
     psi = 0.473*[#   2]+0.473*[#   6]
    |psi|^2 = 0.946
==== e(   6) =     5.06961 eV ==== 
     psi = 0.339*[#   1]+0.339*[#   5]+0.078*[#   3]+0.078*[#   7]+0.026*[#   4]
          +0.026*[#   8]
    |psi|^2 = 0.886
==== e(   7) =     8.75541 eV ==== 
     psi = 0.004*[#   1]+0.004*[#   5]
    |psi|^2 = 0.009
==== e(   8) =     8.90267 eV ==== 
     psi = 0.004*[#   3]+0.004*[#   7]+0.001*[#   4]+0.001*[#   8]
    |psi|^2 = 0.010

 k =  -0.0416666667  0.0721687836  0.0000000000
==== e(   1) =   -21.76377 eV ==== 
     psi = 0.470*[#   1]+0.470*[#   5]+0.013*[#   3]+0.013*[#   7]+0.008*[#   4]
          +0.008*[#   8]
    |psi|^2 = 0.983
==== e(   2) =    -9.83831 eV ==== 
     psi = 0.475*[#   2]+0.475*[#   6]
    |psi|^2 = 0.949
==== e(   3) =    -5.90180 eV ==== 
     psi = 0.301*[#   3]+0.301*[#   7]+0.185*[#   4]+0.185*[#   8]+0.012*[#   1]
          +0.012*[#   5]
    |psi|^2 = 0.997
==== e(   4) =    -5.68555 eV ==== 
     psi = 0.308*[#   4]+0.308*[#   8]+0.190*[#   3]+0.190*[#   7]
    |psi|^2 = 0.997
==== e(   5) =     1.03047 eV ==== 
     psi = 0.004*[#   3]+0.004*[#   7]+0.002*[#   4]+0.002*[#   8]+0.002*[#   1]
          +0.002*[#   5]
    |psi|^2 = 0.016
==== e(   6) =     1.72090 eV ==== 
     psi = 0.008*[#   2]+0.008*[#   6]
    |psi|^2 = 0.016
==== e(   7) =     1.85630 eV ==== 
 
    |psi|^2 = 0.002
==== e(   8) =     2.85824 eV ==== 
     psi = 0.007*[#   2]+0.007*[#   6]
    |psi|^2 = 0.013

 k =  -0.0416666667  0.1202813061  0.0000000000
==== e(   1) =   -21.59993 eV ==== 
     psi = 0.446*[#   1]+0.446*[#   5]+0.024*[#   3]+0.024*[#   7]+0.021*[#   4]
          +0.021*[#   8]
    |psi|^2 = 0.983
==== e(   2) =    -9.64251 eV ==== 
     psi = 0.477*[#   2]+0.477*[#   6]
    |psi|^2 = 0.954
==== e(   3) =    -6.48591 eV ==== 
[...]
    |psi|^2 = 0.995
==== e(   3) =   -10.10470 eV ==== 
     psi = 0.267*[#   4]+0.267*[#   8]+0.193*[#   3]+0.193*[#   7]+0.034*[#   1]
          +0.034*[#   5]
    |psi|^2 = 0.988
==== e(   4) =    -6.47471 eV ==== 
     psi = 0.497*[#   2]+0.497*[#   6]
    |psi|^2 = 0.993
==== e(   5) =     2.20493 eV ==== 
     psi = 0.486*[#   2]+0.486*[#   6]
    |psi|^2 = 0.972
==== e(   6) =     5.04472 eV ==== 
     psi = 0.005*[#   3]+0.005*[#   7]+0.003*[#   4]+0.003*[#   8]
    |psi|^2 = 0.016
==== e(   7) =     5.76081 eV ==== 
 
    |psi|^2 = 0.002
==== e(   8) =     5.97180 eV ==== 
 
    |psi|^2 = 0.001

 k =  -0.2083333333  0.4089564407  0.0000000000
==== e(   1) =   -18.24899 eV ==== 
     psi = 0.273*[#   1]+0.273*[#   5]+0.131*[#   3]+0.131*[#   7]+0.088*[#   4]
          +0.088*[#   8]
    |psi|^2 = 0.983
==== e(   2) =   -12.34502 eV ==== 
     psi = 0.190*[#   4]+0.190*[#   8]+0.159*[#   3]+0.159*[#   7]+0.148*[#   1]
          +0.148*[#   5]
    |psi|^2 = 0.994
==== e(   3) =   -10.65644 eV ==== 
     psi = 0.232*[#   3]+0.232*[#   7]+0.225*[#   4]+0.225*[#   8]+0.037*[#   1]
          +0.037*[#   5]
    |psi|^2 = 0.988
==== e(   4) =    -5.78985 eV ==== 
     psi = 0.498*[#   2]+0.498*[#   6]
    |psi|^2 = 0.995
==== e(   5) =     1.29696 eV ==== 
     psi = 0.488*[#   2]+0.488*[#   6]
    |psi|^2 = 0.975
==== e(   6) =     5.92653 eV ==== 
     psi = 0.003*[#   3]+0.003*[#   7]+0.002*[#   4]+0.002*[#   8]
    |psi|^2 = 0.011
==== e(   7) =     6.62600 eV ==== 
 
    |psi|^2 = 0.001
==== e(   8) =     6.88600 eV ==== 
 
    |psi|^2 = 0.001

 k =  -0.2500000000  0.3849001795  0.0000000000
==== e(   1) =   -18.24896 eV ==== 
     psi = 0.273*[#   1]+0.273*[#   5]+0.140*[#   3]+0.140*[#   7]+0.079*[#   4]
          +0.079*[#   8]
    |psi|^2 = 0.983
==== e(   2) =   -12.34522 eV ==== 
     psi = 0.228*[#   3]+0.228*[#   7]+0.148*[#   1]+0.148*[#   5]+0.121*[#   4]
          +0.121*[#   8]
    |psi|^2 = 0.994
==== e(   3) =   -10.65631 eV ==== 
     psi = 0.300*[#   4]+0.300*[#   8]+0.157*[#   3]+0.157*[#   7]+0.037*[#   1]
          +0.037*[#   5]
    |psi|^2 = 0.988
==== e(   4) =    -5.78986 eV ==== 
     psi = 0.498*[#   2]+0.498*[#   6]
    |psi|^2 = 0.995
==== e(   5) =     1.29700 eV ==== 
     psi = 0.488*[#   2]+0.488*[#   6]
    |psi|^2 = 0.975
==== e(   6) =     5.92655 eV ==== 
     psi = 0.003*[#   3]+0.003*[#   7]+0.002*[#   4]+0.002*[#   8]
    |psi|^2 = 0.011
==== e(   7) =     6.62609 eV ==== 
 
    |psi|^2 = 0.001
==== e(   8) =     6.88564 eV ==== 
 
    |psi|^2 = 0.001

 k =  -0.2083333333  0.4570689631  0.0000000000
==== e(   1) =   -17.56459 eV ==== 
     psi = 0.260*[#   1]+0.260*[#   5]+0.134*[#   3]+0.134*[#   7]+0.099*[#   4]
          +0.099*[#   8]
    |psi|^2 = 0.985
==== e(   2) =   -13.19593 eV ==== 
     psi = 0.211*[#   4]+0.211*[#   8]+0.158*[#   1]+0.158*[#   5]+0.127*[#   3]
          +0.127*[#   7]
    |psi|^2 = 0.992
==== e(   3) =   -11.02858 eV ==== 
     psi = 0.256*[#   3]+0.256*[#   7]+0.196*[#   4]+0.196*[#   8]+0.042*[#   1]
          +0.042*[#   5]
    |psi|^2 = 0.988
==== e(   4) =    -5.06854 eV ==== 
     psi = 0.498*[#   2]+0.498*[#   6]
    |psi|^2 = 0.996
==== e(   5) =     0.39818 eV ==== 
     psi = 0.488*[#   2]+0.488*[#   6]
    |psi|^2 = 0.977
==== e(   6) =     6.90903 eV ==== 
     psi = 0.002*[#   1]+0.002*[#   5]+0.001*[#   3]+0.001*[#   7]+0.001*[#   4]
          +0.001*[#   8]
    |psi|^2 = 0.008
==== e(   7) =     7.55106 eV ==== 
 
    |psi|^2 = 0.001
==== e(   8) =     7.91298 eV ==== 
 
    |psi|^2 = 0.002

 k =  -0.2916666667  0.4089564407  0.0000000000
==== e(   1) =   -17.56449 eV ==== 
     psi = 0.260*[#   1]+0.260*[#   5]+0.152*[#   3]+0.152*[#   7]+0.080*[#   4]
          +0.080*[#   8]
    |psi|^2 = 0.985
==== e(   2) =   -13.19634 eV ==== 
     psi = 0.236*[#   3]+0.236*[#   7]+0.158*[#   1]+0.158*[#   5]+0.102*[#   4]
          +0.102*[#   8]
    |psi|^2 = 0.992
==== e(   3) =   -11.02832 eV ==== 
     psi = 0.316*[#   4]+0.316*[#   8]+0.137*[#   3]+0.137*[#   7]+0.042*[#   1]
          +0.042*[#   5]
    |psi|^2 = 0.988
==== e(   4) =    -5.06858 eV ==== 
     psi = 0.498*[#   2]+0.498*[#   6]
    |psi|^2 = 0.996
==== e(   5) =     0.39826 eV ==== 
     psi = 0.488*[#   2]+0.488*[#   6]
    |psi|^2 = 0.977
==== e(   6) =     6.90903 eV ==== 
     psi = 0.002*[#   1]+0.002*[#   5]+0.001*[#   3]+0.001*[#   7]+0.001*[#   4]
          +0.001*[#   8]
    |psi|^2 = 0.008
==== e(   7) =     7.55096 eV ==== 
 
    |psi|^2 = 0.001
==== e(   8) =     7.91215 eV ==== 
 
    |psi|^2 = 0.002

 k =  -0.2083333333  0.5051814855  0.0000000000
==== e(   1) =   -16.83411 eV ==== 
     psi = 0.253*[#   1]+0.253*[#   5]+0.134*[#   3]+0.134*[#   7]+0.106*[#   4]
          +0.106*[#   8]
    |psi|^2 = 0.987
==== e(   2) =   -14.06912 eV ==== 
     psi = 0.222*[#   4]+0.222*[#   8]+0.162*[#   1]+0.162*[#   5]+0.111*[#   3]
          +0.111*[#   7]
    |psi|^2 = 0.989
==== e(   3) =   -11.25551 eV ==== 
     psi = 0.267*[#   3]+0.267*[#   7]+0.182*[#   4]+0.182*[#   8]+0.045*[#   1]
          +0.045*[#   5]
    |psi|^2 = 0.989
==== e(   4) =    -4.36954 eV ==== 
     psi = 0.498*[#   2]+0.498*[#   6]
    |psi|^2 = 0.996
==== e(   5) =    -0.42500 eV ==== 
     psi = 0.488*[#   2]+0.488*[#   6]
    |psi|^2 = 0.977
==== e(   6) =     7.97880 eV ==== 
     psi = 0.008*[#   1]+0.008*[#   5]+0.001*[#   3]+0.001*[#   4]+0.001*[#   7]
          +0.001*[#   8]
    |psi|^2 = 0.020
==== e(   7) =     8.40660 eV ==== 
     psi = 0.002*[#   2]+0.002*[#   6]
    |psi|^2 = 0.004
==== e(   8) =     8.79877 eV ==== 
     psi = 0.232*[#   1]+0.232*[#   5]+0.087*[#   4]+0.087*[#   8]+0.064*[#   3]
          +0.064*[#   7]
    |psi|^2 = 0.767

 k =  -0.3333333333  0.4330127019  0.0000000000
==== e(   1) =   -16.83381 eV ==== 
     psi = 0.253*[#   1]+0.253*[#   5]+0.158*[#   3]+0.158*[#   7]+0.082*[#   4]
          +0.082*[#   8]
    |psi|^2 = 0.987
==== e(   2) =   -14.06984 eV ==== 
     psi = 0.239*[#   3]+0.239*[#   7]+0.162*[#   1]+0.162*[#   5]+0.094*[#   4]
          +0.094*[#   8]
    |psi|^2 = 0.989
==== e(   3) =   -11.25515 eV ==== 
     psi = 0.322*[#   4]+0.322*[#   8]+0.128*[#   3]+0.128*[#   7]+0.045*[#   1]
          +0.045*[#   5]
    |psi|^2 = 0.989
==== e(   4) =    -4.36961 eV ==== 
     psi = 0.498*[#   2]+0.498*[#   6]
    |psi|^2 = 0.996
==== e(   5) =    -0.42485 eV ==== 
     psi = 0.488*[#   2]+0.488*[#   6]
    |psi|^2 = 0.977
==== e(   6) =     7.97895 eV ==== 
     psi = 0.008*[#   1]+0.008*[#   5]+0.002*[#   4]+0.002*[#   8]
    |psi|^2 = 0.020
==== e(   7) =     8.40665 eV ==== 
     psi = 0.002*[#   2]+0.002*[#   6]
    |psi|^2 = 0.004
==== e(   8) =     8.80028 eV ==== 
     psi = 0.234*[#   1]+0.234*[#   5]+0.091*[#   3]+0.091*[#   7]+0.062*[#   8]
          +0.062*[#   4]
    |psi|^2 = 0.773

 k =  -0.2083333333  0.5532940080  0.0000000000
==== e(   1) =   -16.14066 eV ==== 
     psi = 0.265*[#   1]+0.265*[#   5]+0.122*[#   3]+0.122*[#   7]+0.108*[#   4]
          +0.108*[#   8]
    |psi|^2 = 0.991
==== e(   2) =   -14.84226 eV ==== 
     psi = 0.231*[#   4]+0.231*[#   8]+0.148*[#   1]+0.148*[#   5]+0.113*[#   3]
          +0.113*[#   7]
    |psi|^2 = 0.985
==== e(   3) =   -11.36368 eV ==== 
     psi = 0.272*[#   3]+0.272*[#   7]+0.176*[#   4]+0.176*[#   8]+0.047*[#   1]
          +0.047*[#   5]
    |psi|^2 = 0.989
==== e(   4) =    -3.85724 eV ==== 
     psi = 0.498*[#   2]+0.498*[#   6]
    |psi|^2 = 0.997
==== e(   5) =    -1.00142 eV ==== 
     psi = 0.488*[#   2]+0.488*[#   6]
    |psi|^2 = 0.976
==== e(   6) =     8.72320 eV ==== 
     psi = 0.245*[#   1]+0.245*[#   5]+0.076*[#   4]+0.076*[#   8]+0.063*[#   3]
          +0.063*[#   7]
    |psi|^2 = 0.770
==== e(   7) =     8.86876 eV ==== 
     psi = 0.005*[#   2]+0.005*[#   6]
    |psi|^2 = 0.010
==== e(   8) =     9.15109 eV ==== 
     psi = 0.013*[#   1]+0.013*[#   5]+0.008*[#   4]+0.008*[#   8]+0.004*[#   3]
          +0.004*[#   7]
    |psi|^2 = 0.048

 k =  -0.3750000000  0.4570689631  0.0000000000
==== e(   1) =   -16.13962 eV ==== 
     psi = 0.265*[#   1]+0.265*[#   5]+0.146*[#   3]+0.146*[#   7]+0.084*[#   4]
          +0.084*[#   8]
    |psi|^2 = 0.991
==== e(   2) =   -14.84381 eV ==== 
     psi = 0.254*[#   3]+0.254*[#   7]+0.148*[#   1]+0.148*[#   5]+0.090*[#   4]
          +0.090*[#   8]
    |psi|^2 = 0.985
==== e(   3) =   -11.36323 eV ==== 
     psi = 0.323*[#   4]+0.323*[#   8]+0.124*[#   3]+0.124*[#   7]+0.047*[#   1]
          +0.047*[#   5]
    |psi|^2 = 0.989
==== e(   4) =    -3.85738 eV ==== 
     psi = 0.498*[#   2]+0.498*[#   6]
    |psi|^2 = 0.997
==== e(   5) =    -1.00119 eV ==== 
     psi = 0.488*[#   2]+0.488*[#   6]
    |psi|^2 = 0.976
==== e(   6) =     8.72428 eV ==== 
     psi = 0.245*[#   1]+0.245*[#   5]+0.080*[#   3]+0.080*[#   7]+0.060*[#   4]
          +0.060*[#   8]
    |psi|^2 = 0.770
==== e(   7) =     8.86883 eV ==== 
     psi = 0.005*[#   2]+0.005*[#   6]
    |psi|^2 = 0.010
==== e(   8) =     9.15098 eV ==== 
     psi = 0.013*[#   1]+0.013*[#   5]+0.008*[#   3]+0.008*[#   7]+0.004*[#   4]
          +0.004*[#   8]
    |psi|^2 = 0.048

 k =  -0.2500000000  0.4330127019  0.0000000000
==== e(   1) =   -17.60183 eV ==== 
     psi = 0.260*[#   1]+0.260*[#   5]+0.143*[#   3]+0.143*[#   7]+0.089*[#   4]
          +0.089*[#   8]
    |psi|^2 = 0.985
==== e(   2) =   -12.89571 eV ==== 
     psi = 0.182*[#   3]+0.182*[#   7]+0.167*[#   1]+0.167*[#   5]+0.148*[#   4]
          +0.148*[#   8]
    |psi|^2 = 0.994
==== e(   3) =   -11.33858 eV ==== 
     psi = 0.264*[#   4]+0.264*[#   8]+0.195*[#   3]+0.195*[#   7]+0.034*[#   1]
          +0.034*[#   5]
    |psi|^2 = 0.986
==== e(   4) =    -5.09060 eV ==== 
     psi = 0.498*[#   2]+0.498*[#   6]
    |psi|^2 = 0.996
==== e(   5) =     0.47972 eV ==== 
     psi = 0.490*[#   2]+0.490*[#   6]
    |psi|^2 = 0.980
==== e(   6) =     6.85486 eV ==== 
     psi = 0.002*[#   3]+0.002*[#   7]+0.001*[#   1]+0.001*[#   4]+0.001*[#   5]
          +0.001*[#   8]
    |psi|^2 = 0.008
==== e(   7) =     7.47940 eV ==== 
 
    |psi|^2 = 0.000
==== e(   8) =     7.85632 eV ==== 
 
    |psi|^2 = 0.001

 k =  -0.2500000000  0.4811252243  0.0000000000
==== e(   1) =   -16.90059 eV ==== 
     psi = 0.250*[#   1]+0.250*[#   5]+0.145*[#   3]+0.145*[#   7]+0.099*[#   4]
          +0.099*[#   8]
    |psi|^2 = 0.987
==== e(   2) =   -13.57147 eV ==== 
     psi = 0.183*[#   4]+0.183*[#   8]+0.178*[#   1]+0.178*[#   5]+0.136*[#   3]
          +0.136*[#   7]
    |psi|^2 = 0.993
==== e(   3) =   -11.80113 eV ==== 
     psi = 0.234*[#   3]+0.234*[#   7]+0.223*[#   4]+0.223*[#   8]+0.035*[#   1]
          +0.035*[#   5]
    |psi|^2 = 0.986
==== e(   4) =    -4.36780 eV ==== 
     psi = 0.498*[#   2]+0.498*[#   6]
    |psi|^2 = 0.996
==== e(   5) =    -0.32713 eV ==== 
     psi = 0.492*[#   2]+0.492*[#   6]
    |psi|^2 = 0.983
==== e(   6) =     7.87484 eV ==== 
     psi = 0.004*[#   1]+0.004*[#   5]+0.001*[#   4]
    |psi|^2 = 0.011
==== e(   7) =     8.21727 eV ==== 
 
    |psi|^2 = 0.001
==== e(   8) =     8.93885 eV ==== 
     psi = 0.001*[#   1]+0.001*[#   5]
    |psi|^2 = 0.004

 k =  -0.2916666667  0.4570689631  0.0000000000
==== e(   1) =   -16.90049 eV ==== 
     psi = 0.250*[#   1]+0.250*[#   5]+0.153*[#   3]+0.153*[#   7]+0.091*[#   4]
          +0.091*[#   8]
    |psi|^2 = 0.987
==== e(   2) =   -13.57180 eV ==== 
     psi = 0.205*[#   3]+0.205*[#   7]+0.178*[#   1]+0.178*[#   5]+0.113*[#   4]
          +0.113*[#   8]
    |psi|^2 = 0.993
==== e(   3) =   -11.80091 eV ==== 
     psi = 0.296*[#   4]+0.296*[#   8]+0.161*[#   3]+0.161*[#   7]+0.035*[#   1]
          +0.035*[#   5]
    |psi|^2 = 0.986
==== e(   4) =    -4.36782 eV ==== 
     psi = 0.498*[#   2]+0.498*[#   6]
    |psi|^2 = 0.996
==== e(   5) =    -0.32708 eV ==== 
     psi = 0.492*[#   2]+0.492*[#   6]
    |psi|^2 = 0.983
==== e(   6) =     7.87478 eV ==== 
     psi = 0.004*[#   1]+0.004*[#   5]+0.001*[#   4]+0.001*[#   8]
    |psi|^2 = 0.011
==== e(   7) =     8.21709 eV ==== 
 
    |psi|^2 = 0.001
==== e(   8) =     8.93935 eV ==== 
     psi = 0.002*[#   1]+0.002*[#   5]
    |psi|^2 = 0.006

 k =  -0.2500000000  0.5292377468  0.0000000000
==== e(   1) =   -16.17750 eV ==== 
     psi = 0.247*[#   1]+0.247*[#   5]+0.142*[#   3]+0.142*[#   7]+0.106*[#   4]
          +0.106*[#   8]
    |psi|^2 = 0.989
==== e(   2) =   -14.31861 eV ==== 
     psi = 0.207*[#   4]+0.207*[#   8]+0.178*[#   1]+0.178*[#   5]+0.111*[#   3]
          +0.111*[#   7]
    |psi|^2 = 0.990
==== e(   3) =   -12.04633 eV ==== 
     psi = 0.257*[#   3]+0.257*[#   7]+0.196*[#   4]+0.196*[#   8]+0.040*[#   1]
          +0.040*[#   5]
    |psi|^2 = 0.986
==== e(   4) =    -3.70222 eV ==== 
     psi = 0.498*[#   2]+0.498*[#   6]
    |psi|^2 = 0.996
==== e(   5) =    -1.04356 eV ==== 
     psi = 0.492*[#   2]+0.492*[#   6]
    |psi|^2 = 0.985
==== e(   6) =     8.53538 eV ==== 
     psi = 0.002*[#   2]+0.002*[#   6]
    |psi|^2 = 0.003
==== e(   7) =     8.95880 eV ==== 
     psi = 0.013*[#   1]+0.013*[#   5]+0.003*[#   4]+0.003*[#   8]+0.002*[#   3]
          +0.002*[#   7]
    |psi|^2 = 0.036
==== e(   8) =     9.87415 eV ==== 
     psi = 0.215*[#   1]+0.215*[#   5]+0.081*[#   4]+0.081*[#   8]+0.063*[#   7]
          +0.063*[#   3]
    |psi|^2 = 0.717

 k =  -0.3333333333  0.4811252243  0.0000000000
==== e(   1) =   -16.17707 eV ==== 
     psi = 0.247*[#   1]+0.247*[#   5]+0.154*[#   3]+0.154*[#   7]+0.094*[#   4]
          +0.094*[#   8]
    |psi|^2 = 0.989
==== e(   2) =   -14.31948 eV ==== 
     psi = 0.221*[#   3]+0.221*[#   7]+0.178*[#   1]+0.178*[#   5]+0.096*[#   4]
          +0.096*[#   8]
    |psi|^2 = 0.990
==== e(   3) =   -12.04591 eV ==== 
     psi = 0.310*[#   4]+0.310*[#   8]+0.143*[#   3]+0.143*[#   7]+0.040*[#   1]
          +0.040*[#   5]
    |psi|^2 = 0.986
==== e(   4) =    -3.70230 eV ==== 
     psi = 0.498*[#   2]+0.498*[#   6]
    |psi|^2 = 0.996
==== e(   5) =    -1.04343 eV ==== 
     psi = 0.492*[#   2]+0.492*[#   6]
    |psi|^2 = 0.985
==== e(   6) =     8.53531 eV ==== 
     psi = 0.002*[#   2]+0.002*[#   6]
    |psi|^2 = 0.003
==== e(   7) =     8.95879 eV ==== 
     psi = 0.013*[#   1]+0.013*[#   5]+0.003*[#   4]+0.003*[#   8]+0.002*[#   3]
          +0.002*[#   7]
    |psi|^2 = 0.036
==== e(   8) =     9.87415 eV ==== 
     psi = 0.212*[#   1]+0.212*[#   5]+0.082*[#   3]+0.082*[#   7]+0.061*[#   8]
          +0.061*[#   4]
    |psi|^2 = 0.711

 k =  -0.3750000000  0.5051814855  0.0000000000
==== e(   1) =   -15.68896 eV ==== 
     psi = 0.265*[#   1]+0.265*[#   5]+0.132*[#   3]+0.132*[#   7]+0.099*[#   4]
          +0.099*[#   8]
    |psi|^2 = 0.993
==== e(   2) =   -14.82314 eV ==== 
     psi = 0.248*[#   3]+0.248*[#   7]+0.158*[#   1]+0.158*[#   5]+0.087*[#   4]
          +0.087*[#   8]
    |psi|^2 = 0.987
==== e(   3) =   -12.12123 eV ==== 
     psi = 0.313*[#   4]+0.313*[#   8]+0.138*[#   3]+0.138*[#   7]+0.042*[#   1]
          +0.042*[#   5]
    |psi|^2 = 0.986
==== e(   4) =    -3.36958 eV ==== 
     psi = 0.498*[#   2]+0.498*[#   6]
    |psi|^2 = 0.996
==== e(   5) =    -1.39321 eV ==== 
     psi = 0.492*[#   2]+0.492*[#   6]
    |psi|^2 = 0.984
==== e(   6) =     8.57948 eV ==== 
     psi = 0.002*[#   2]+0.002*[#   6]
    |psi|^2 = 0.005
==== e(   7) =     9.78242 eV ==== 
     psi = 0.216*[#   1]+0.216*[#   5]+0.071*[#   3]+0.071*[#   7]+0.060*[#   4]
          +0.060*[#   8]
    |psi|^2 = 0.695
==== e(   8) =     9.94898 eV ==== 
     psi = 0.031*[#   1]+0.031*[#   5]+0.010*[#   4]+0.010*[#   8]+0.009*[#   3]
          +0.009*[#   7]
    |psi|^2 = 0.100

 k =  -0.2916666667  0.5051814855  0.0000000000
==== e(   1) =   -16.19799 eV ==== 
     psi = 0.242*[#   1]+0.242*[#   5]+0.151*[#   3]+0.151*[#   7]+0.101*[#   4]
          +0.101*[#   8]
    |psi|^2 = 0.989
==== e(   2) =   -14.02427 eV ==== 
     psi = 0.201*[#   1]+0.201*[#   5]+0.157*[#   3]+0.157*[#   7]+0.140*[#   4]
          +0.140*[#   8]
    |psi|^2 = 0.994
==== e(   3) =   -12.38762 eV ==== 
     psi = 0.263*[#   4]+0.263*[#   8]+0.206*[#   3]+0.206*[#   7]+0.023*[#   1]
          +0.023*[#   5]
    |psi|^2 = 0.983
==== e(   4) =    -3.65110 eV ==== 
     psi = 0.498*[#   2]+0.498*[#   6]
    |psi|^2 = 0.995
==== e(   5) =    -1.05158 eV ==== 
     psi = 0.494*[#   2]+0.494*[#   6]
    |psi|^2 = 0.988
==== e(   6) =     8.41134 eV ==== 
 
    |psi|^2 = 0.001
==== e(   7) =     8.90846 eV ==== 
     psi = 0.010*[#   1]+0.010*[#   5]+0.002*[#   4]+0.002*[#   8]+0.002*[#   3]
          +0.002*[#   7]
    |psi|^2 = 0.027
==== e(   8) =    10.07349 eV ==== 
     psi = 0.002*[#   1]+0.002*[#   5]
    |psi|^2 = 0.007

 k =  -0.2916666667  0.5532940080  0.0000000000
==== e(   1) =   -15.52367 eV ==== 
     psi = 0.243*[#   1]+0.243*[#   5]+0.142*[#   3]+0.142*[#   7]+0.110*[#   4]
          +0.110*[#   8]
    |psi|^2 = 0.992
==== e(   2) =   -14.57561 eV ==== 
     psi = 0.205*[#   1]+0.205*[#   5]+0.174*[#   4]+0.174*[#   8]+0.117*[#   3]
          +0.117*[#   7]
    |psi|^2 = 0.992
==== e(   3) =   -12.68290 eV ==== 
     psi = 0.249*[#   3]+0.249*[#   7]+0.224*[#   4]+0.224*[#   8]+0.018*[#   1]
          +0.018*[#   5]
    |psi|^2 = 0.982
==== e(   4) =    -3.02137 eV ==== 
     psi = 0.497*[#   2]+0.497*[#   6]
    |psi|^2 = 0.995
==== e(   5) =    -1.68250 eV ==== 
     psi = 0.495*[#   2]+0.495*[#   6]
    |psi|^2 = 0.990
==== e(   6) =     8.36425 eV ==== 
 
    |psi|^2 = 0.001
==== e(   7) =     9.92641 eV ==== 
     psi = 0.036*[#   1]+0.036*[#   5]+0.011*[#   4]+0.011*[#   8]+0.009*[#   3]
          +0.010*[#   7]
    |psi|^2 = 0.113
==== e(   8) =    10.56797 eV ==== 
     psi = 0.154*[#   1]+0.154*[#   5]+0.050*[#   4]+0.050*[#   8]+0.046*[#   3]
          +0.046*[#   7]
    |psi|^2 = 0.500

 k =  -0.3333333333  0.5292377468  0.0000000000
==== e(   1) =   -15.52304 eV ==== 
     psi = 0.243*[#   1]+0.243*[#   5]+0.144*[#   3]+0.144*[#   7]+0.109*[#   4]
          +0.109*[#   8]
    |psi|^2 = 0.992
==== e(   2) =   -14.57661 eV ==== 
     psi = 0.205*[#   1]+0.205*[#   5]+0.186*[#   3]+0.186*[#   7]+0.104*[#   4]
          +0.104*[#   8]
    |psi|^2 = 0.992
==== e(   3) =   -12.68254 eV ==== 
     psi = 0.290*[#   4]+0.290*[#   8]+0.183*[#   3]+0.183*[#   7]+0.018*[#   1]
          +0.018*[#   5]
    |psi|^2 = 0.982
==== e(   4) =    -3.02146 eV ==== 
     psi = 0.497*[#   2]+0.497*[#   6]
    |psi|^2 = 0.995
==== e(   5) =    -1.68239 eV ==== 
     psi = 0.495*[#   2]+0.495*[#   6]
    |psi|^2 = 0.990
==== e(   6) =     8.36425 eV ==== 
 
    |psi|^2 = 0.001
==== e(   7) =     9.92620 eV ==== 
     psi = 0.035*[#   1]+0.035*[#   5]+0.011*[#   4]+0.011*[#   8]+0.009*[#   3]
          +0.009*[#   7]
    |psi|^2 = 0.110
==== e(   8) =    10.56638 eV ==== 
     psi = 0.157*[#   1]+0.157*[#   5]+0.050*[#   3]+0.050*[#   7]+0.049*[#   8]
          +0.048*[#   4]
    |psi|^2 = 0.511

Lowdin Charges: 

     Atom #   1: total charge =   3.9539, s =  0.9001, p =  3.0538, 
                 spin up      =   1.9770, s =  0.4500, 
                 spin up      =   1.9770, p =  1.5269, pz=  0.4933, px=  0.5168, py=  0.5168, 
                 spin down    =   1.9770, s =  0.4500, 
                 spin down    =   1.9770, p =  1.5269, pz=  0.4933, px=  0.5168, py=  0.5168, 
                 polarization =   0.0000, s =  0.0000, p =  0.0000, 
     Atom #   2: total charge =   3.9539, s =  0.9001, p =  3.0538, 
                 spin up      =   1.9770, s =  0.4500, 
                 spin up      =   1.9770, p =  1.5269, pz=  0.4933, px=  0.5168, py=  0.5168, 
                 spin down    =   1.9770, s =  0.4500, 
                 spin down    =   1.9770, p =  1.5269, pz=  0.4933, px=  0.5168, py=  0.5168, 
                 polarization =   0.0000, s =  0.0000, p =  0.0000, 
     Spilling Parameter:   0.0115
 
     PROJWFC      :      1.38s CPU      1.91s WALL

 
   This run was terminated on:  17:21:49  11Feb2026            

=------------------------------------------------------------------------------=
   JOB DONE.
=------------------------------------------------------------------------------=
