
     Program PWSCF v.7.3 starts on 11Feb2026 at 16:22:21 

     This program is part of the open-source Quantum ESPRESSO suite
     for quantum simulation of materials; please cite
         "P. Giannozzi et al., J. Phys.:Condens. Matter 21 395502 (2009);
         "P. Giannozzi et al., J. Phys.:Condens. Matter 29 465901 (2017);
         "P. Giannozzi et al., J. Chem. Phys. 152 154105 (2020);
          URL http://www.quantum-espresso.org", 
     in publications or presentations arising from this work. More details at
     http://www.quantum-espresso.org/quote

     Parallel version (MPI), running on     2 processors

     MPI processes distributed on     1 nodes
     160495 MiB available memory on the printing compute node when the environment starts
 
     Reading input from scf.in

     Current dimensions of program PWSCF are:
     Max number of different atomic species (ntypx) = 10
     Max number of k-points (npk) =  40000
     Max angular momentum in pseudopotentials (lmaxx) =  4
 
     R & G space division:  proc/nbgrp/npool/nimage =       2
     Subspace diagonalization in iterative solution of the eigenvalue problem:
     a serial algorithm will be used

 
     Parallelization info
     --------------------
     sticks:   dense  smooth     PW     G-vecs:    dense   smooth      PW
     Min         297     120     42                47882    12120    2286
     Max         298     121     43                47885    12141    2289
     Sum         595     241     85                95767    24261    4575
 
     Using Slab Decomposition
 


     bravais-lattice index     =            4
     lattice parameter (alat)  =       4.6544  a.u.
     unit-cell volume          =     709.0650 (a.u.)^3
     number of atoms/cell      =            2
     number of atomic types    =            1
     number of electrons       =         8.00
     number of Kohn-Sham states=            8
     kinetic-energy cutoff     =      40.0000  Ry
     charge density cutoff     =     400.0000  Ry
     scf convergence threshold =      1.0E-07
     mixing beta               =       0.7000
     number of iterations used =            8  plain     mixing
     Exchange-correlation= PBE
                           (   1   4   3   4   0   0   0)

     celldm(1)=   4.654395  celldm(2)=   0.000000  celldm(3)=   8.120179
     celldm(4)=   0.000000  celldm(5)=   0.000000  celldm(6)=   0.000000

     crystal axes: (cart. coord. in units of alat)
               a(1) = (   1.000000   0.000000   0.000000 )  
               a(2) = (  -0.500000   0.866025   0.000000 )  
               a(3) = (   0.000000   0.000000   8.120179 )  

     reciprocal axes: (cart. coord. in units 2 pi/alat)
               b(1) = (  1.000000  0.577350  0.000000 )  
               b(2) = (  0.000000  1.154701  0.000000 )  
               b(3) = (  0.000000  0.000000  0.123150 )  


     PseudoPot. # 1 for C  read from file:
     /home/samim/quantum_base/upf_files/C.pbe-n-rrkjus_psl.0.1.UPF
     MD5 check sum: ab446d787031eba755f1d5ee46644bb0
     Pseudo is Ultrasoft + core correction, Zval =  4.0
     Generated using "atomic" code by A. Dal Corso  v.5.0.2 svn rev. 9415
     Using radial grid of 1073 points,  4 beta functions with: 
                l(1) =   0
                l(2) =   0
                l(3) =   1
                l(4) =   1
     Q(r) pseudized with 0 coefficients 


     atomic species   valence    mass     pseudopotential
     C                 4.00    12.01070     C ( 1.00)

     Starting magnetic structure 
     atomic species   magnetization
     C               0.000

      2 Sym. Ops. (no inversion) found



   Cartesian axes

     site n.     atom                  positions (alat units)
         1        C      tau(   1) = (   0.5008317   0.2900867   3.9641778  )
         2        C      tau(   2) = (   0.0008085   0.5787764   3.9641778  )

     number of k points=    43  Marzari-Vanderbilt smearing, width (Ry)=  0.0100
                       cart. coord. in units 2pi/alat
        k(    1) = (   0.0000000   0.0000000   0.0000000), wk =   0.0069444
        k(    2) = (   0.0000000   0.0962250   0.0000000), wk =   0.0277778
        k(    3) = (   0.0000000   0.1924501   0.0000000), wk =   0.0277778
        k(    4) = (   0.0000000   0.2886751   0.0000000), wk =   0.0277778
        k(    5) = (   0.0000000   0.3849002   0.0000000), wk =   0.0277778
        k(    6) = (   0.0000000   0.4811252   0.0000000), wk =   0.0277778
        k(    7) = (   0.0000000  -0.5773503   0.0000000), wk =   0.0138889
        k(    8) = (   0.0833333   0.1443376   0.0000000), wk =   0.0138889
        k(    9) = (   0.0833333   0.2405626   0.0000000), wk =   0.0277778
        k(   10) = (   0.0833333   0.3367877   0.0000000), wk =   0.0277778
        k(   11) = (   0.0833333   0.4330127   0.0000000), wk =   0.0277778
        k(   12) = (   0.0833333   0.5292377   0.0000000), wk =   0.0277778
        k(   13) = (   0.1666667   0.2886751   0.0000000), wk =   0.0138889
        k(   14) = (   0.1666667   0.3849002   0.0000000), wk =   0.0277778
        k(   15) = (   0.1666667   0.4811252   0.0000000), wk =   0.0277778
        k(   16) = (   0.1666667   0.5773503   0.0000000), wk =   0.0277778
        k(   17) = (   0.2500000   0.4330127   0.0000000), wk =   0.0138889
        k(   18) = (   0.2500000   0.5292377   0.0000000), wk =   0.0277778
        k(   19) = (   0.3333333   0.5773503   0.0000000), wk =   0.0138889
        k(   20) = (  -0.0833333   0.0481125   0.0000000), wk =   0.0138889
        k(   21) = (  -0.1666667   0.0962250   0.0000000), wk =   0.0138889
        k(   22) = (  -0.2500000   0.1443376   0.0000000), wk =   0.0138889
        k(   23) = (  -0.3333333   0.1924501   0.0000000), wk =   0.0138889
        k(   24) = (  -0.4166667   0.2405626   0.0000000), wk =   0.0138889
        k(   25) = (   0.5000000  -0.2886751   0.0000000), wk =   0.0069444
        k(   26) = (  -0.0833333   0.1443376   0.0000000), wk =   0.0277778
        k(   27) = (  -0.0833333   0.2405626   0.0000000), wk =   0.0277778
        k(   28) = (  -0.1666667   0.1924501   0.0000000), wk =   0.0277778
        k(   29) = (  -0.0833333   0.3367877   0.0000000), wk =   0.0277778
        k(   30) = (  -0.2500000   0.2405626   0.0000000), wk =   0.0277778
        k(   31) = (  -0.0833333   0.4330127   0.0000000), wk =   0.0277778
        k(   32) = (  -0.3333333   0.2886751   0.0000000), wk =   0.0277778
        k(   33) = (  -0.0833333   0.5292377   0.0000000), wk =   0.0277778
        k(   34) = (  -0.4166667   0.3367877   0.0000000), wk =   0.0277778
        k(   35) = (  -0.1666667   0.2886751   0.0000000), wk =   0.0277778
        k(   36) = (  -0.1666667   0.3849002   0.0000000), wk =   0.0277778
        k(   37) = (  -0.2500000   0.3367877   0.0000000), wk =   0.0277778
        k(   38) = (  -0.1666667   0.4811252   0.0000000), wk =   0.0277778
        k(   39) = (  -0.3333333   0.3849002   0.0000000), wk =   0.0277778
        k(   40) = (  -0.4166667   0.4330127   0.0000000), wk =   0.0138889
        k(   41) = (  -0.2500000   0.4330127   0.0000000), wk =   0.0277778
        k(   42) = (  -0.2500000   0.5292377   0.0000000), wk =   0.0277778
        k(   43) = (  -0.3333333   0.4811252   0.0000000), wk =   0.0277778

     Dense  grid:    95767 G-vectors     FFT dimensions: (  30,  30, 243)

     Smooth grid:    24261 G-vectors     FFT dimensions: (  20,  20, 160)

     Estimated max dynamical RAM per process >      96.50 MB

     Estimated total dynamical RAM >     192.99 MB
     Generating pointlists ...
     new r_m :   0.2382 (alat units)  1.1084 (a.u.) for type    1

     Initial potential from superposition of free atoms

     starting charge       7.9999, renormalised to       8.0000

     negative rho (up, down):  5.125E-06 5.125E-06
     Starting wfcs are    8 randomized atomic wfcs

     total cpu time spent up to now is        1.7 secs

     Self-consistent Calculation

     iteration #  1     ecut=    40.00 Ry     beta= 0.70
     Davidson diagonalization with overlap
     ethr =  1.00E-02,  avg # of iterations =  7.7

     total cpu time spent up to now is        5.6 secs

     total energy              =     -23.85483345 Ry
     estimated scf accuracy    <       0.11198388 Ry

     total magnetization       =     0.00 Bohr mag/cell
     absolute magnetization    =     0.01 Bohr mag/cell

     iteration #  2     ecut=    40.00 Ry     beta= 0.70
     Davidson diagonalization with overlap
     ethr =  1.40E-03,  avg # of iterations =  5.0

     negative rho (up, down):  1.339E-05 1.632E-05

     total cpu time spent up to now is        8.5 secs

     total energy              =     -23.89712208 Ry
     estimated scf accuracy    <       0.01465333 Ry

     total magnetization       =    -0.00 Bohr mag/cell
     absolute magnetization    =     0.00 Bohr mag/cell

     iteration #  3     ecut=    40.00 Ry     beta= 0.70
     Davidson diagonalization with overlap
     c_bands:  2 eigenvalues not converged
     c_bands:  3 eigenvalues not converged
     c_bands:  2 eigenvalues not converged
     c_bands:  1 eigenvalues not converged
     c_bands:  2 eigenvalues not converged
     c_bands:  2 eigenvalues not converged
     c_bands:  2 eigenvalues not converged
     c_bands:  1 eigenvalues not converged
     c_bands:  1 eigenvalues not converged
     c_bands:  1 eigenvalues not converged
     c_bands:  2 eigenvalues not converged
     c_bands:  2 eigenvalues not converged
     c_bands:  2 eigenvalues not converged
     c_bands:  2 eigenvalues not converged
     c_bands:  1 eigenvalues not converged
     c_bands:  1 eigenvalues not converged
     c_bands:  2 eigenvalues not converged
     c_bands:  2 eigenvalues not converged
     c_bands:  1 eigenvalues not converged
     c_bands:  1 eigenvalues not converged
     c_bands:  1 eigenvalues not converged
     c_bands:  1 eigenvalues not converged
     c_bands:  3 eigenvalues not converged
     c_bands:  1 eigenvalues not converged
     c_bands:  1 eigenvalues not converged
     c_bands:  1 eigenvalues not converged
     c_bands:  1 eigenvalues not converged
     ethr =  1.83E-04,  avg # of iterations = 17.0

     negative rho (up, down):  2.065E-07 2.514E-07

     total cpu time spent up to now is       13.4 secs

     total energy              =     -23.90797370 Ry
     estimated scf accuracy    <       0.00477877 Ry

     total magnetization       =    -0.00 Bohr mag/cell
     absolute magnetization    =     0.00 Bohr mag/cell

     iteration #  4     ecut=    40.00 Ry     beta= 0.70
     Davidson diagonalization with overlap
     c_bands:  1 eigenvalues not converged
     c_bands:  1 eigenvalues not converged
     ethr =  5.97E-05,  avg # of iterations =  5.8

     negative rho (up, down):  4.450E-05 3.951E-05

     total cpu time spent up to now is       15.9 secs

     total energy              =     -23.90839392 Ry
     estimated scf accuracy    <       0.00065992 Ry

     total magnetization       =    -0.00 Bohr mag/cell
     absolute magnetization    =     0.00 Bohr mag/cell

     iteration #  5     ecut=    40.00 Ry     beta= 0.70
     Davidson diagonalization with overlap
     c_bands:  1 eigenvalues not converged
     c_bands:  1 eigenvalues not converged
     c_bands:  1 eigenvalues not converged
     c_bands:  1 eigenvalues not converged
     c_bands:  1 eigenvalues not converged
     c_bands:  1 eigenvalues not converged
     c_bands:  1 eigenvalues not converged
     c_bands:  1 eigenvalues not converged
     c_bands:  1 eigenvalues not converged
     c_bands:  1 eigenvalues not converged
     c_bands:  1 eigenvalues not converged
     c_bands:  1 eigenvalues not converged
     c_bands:  1 eigenvalues not converged
     c_bands:  1 eigenvalues not converged
     c_bands:  1 eigenvalues not converged
     c_bands:  1 eigenvalues not converged
     c_bands:  1 eigenvalues not converged
     c_bands:  1 eigenvalues not converged
     c_bands:  1 eigenvalues not converged
     c_bands:  1 eigenvalues not converged
     c_bands:  1 eigenvalues not converged
     ethr =  8.25E-06,  avg # of iterations = 13.3

     negative rho (up, down):  1.149E-05 1.174E-05

     total cpu time spent up to now is       20.9 secs

     total energy              =     -23.90878778 Ry
     estimated scf accuracy    <       0.00066272 Ry

     total magnetization       =     0.00 Bohr mag/cell
     absolute magnetization    =     0.00 Bohr mag/cell

     iteration #  6     ecut=    40.00 Ry     beta= 0.70
     Davidson diagonalization with overlap
     c_bands:  2 eigenvalues not converged
     c_bands:  1 eigenvalues not converged
     ethr =  8.25E-06,  avg # of iterations =  3.3

     negative rho (up, down):  1.200E-05 1.221E-05

     total cpu time spent up to now is       23.5 secs

     total energy              =     -23.90885255 Ry
     estimated scf accuracy    <       0.00001760 Ry

     total magnetization       =     0.00 Bohr mag/cell
     absolute magnetization    =     0.00 Bohr mag/cell

     iteration #  7     ecut=    40.00 Ry     beta= 0.70
     Davidson diagonalization with overlap
     c_bands:  2 eigenvalues not converged
     c_bands:  1 eigenvalues not converged
     c_bands:  2 eigenvalues not converged
     c_bands:  1 eigenvalues not converged
     c_bands:  1 eigenvalues not converged
     ethr =  2.20E-07,  avg # of iterations =  9.4

     negative rho (up, down):  1.406E-05 1.406E-05
 
     Magnetic moment per site  (integrated on atomic sphere of radius R)
     atom   1 (R=0.238)  charge=  1.7108  magn= -0.0000
     atom   2 (R=0.238)  charge=  1.7108  magn= -0.0000

     total cpu time spent up to now is       27.0 secs

     End of self-consistent calculation

 ------ SPIN UP ------------


          k = 0.0000 0.0000 0.0000 (  3053 PWs)   bands (ev):

   -21.8824  -9.9827  -5.4131  -5.4116   0.8627   1.5501   1.6845   2.6881

          k = 0.0000 0.0962 0.0000 (  3046 PWs)   bands (ev):

   -21.7184  -9.7862  -6.0620  -5.7509   1.0865   1.7773   1.9135   2.9172

          k = 0.0000 0.1925 0.0000 (  3046 PWs)   bands (ev):

   -21.2280  -9.2022  -7.6974  -6.5444   1.7576   2.4583   2.6003   3.5920

          k = 0.0000 0.2887 0.0000 (  3038 PWs)   bands (ev):

   -20.4170  -9.7944  -8.2498  -7.4255   2.8743   3.5798   3.7423   4.6683

          k = 0.0000 0.3849 0.0000 (  3034 PWs)   bands (ev):

   -19.2974 -11.9976  -8.1600  -6.9793   2.5800   4.4247   5.2025   5.3954

          k = 0.0000 0.4811 0.0000 (  3050 PWs)   bands (ev):

   -17.9001 -14.0989  -8.6336  -5.5539   0.4400   5.1508   6.4417   7.2068

          k = 0.0000-0.5774 0.0000 (  3036 PWs)   bands (ev):

   -16.6312 -15.6104  -8.7962  -4.7074  -0.6606   5.0732   8.7566   8.9018

          k = 0.0833 0.1443 0.0000 (  3051 PWs)   bands (ev):

   -21.3912  -9.3959  -7.0943  -6.4288   1.5341   2.2307   2.3701   3.3659

          k = 0.0833 0.2406 0.0000 (  3037 PWs)   bands (ev):

   -20.7405  -8.8021  -8.6265  -7.4279   2.4288   3.1361   3.2850   4.2675

          k = 0.0833 0.3368 0.0000 (  3028 PWs)   bands (ev):

   -19.7750 -10.8745  -8.3152  -7.5086   3.5934   3.7663   4.5103   4.6574

          k = 0.0833 0.4330 0.0000 (  3039 PWs)   bands (ev):

   -18.5136 -12.9978  -8.9507  -6.1264   1.3893   5.5209   6.0022   6.2960

          k = 0.0833 0.5292 0.0000 (  3029 PWs)   bands (ev):

   -17.0315 -14.9417  -9.2795  -4.8144  -0.3833   5.8102   7.7446   8.5008

          k = 0.1667 0.2887 0.0000 (  3021 PWs)   bands (ev):

   -19.9353 -10.1306  -8.7911  -7.6877   3.5456   4.0526   4.2613   4.4284

          k = 0.1667 0.3849 0.0000 (  3030 PWs)   bands (ev):

   -18.8266 -11.8577  -9.8479  -6.4323   2.1004   5.0997   5.8225   6.0289

          k = 0.1667 0.4811 0.0000 (  3031 PWs)   bands (ev):

   -17.4493 -13.7700 -10.4237  -5.0028   0.1839   7.0656   7.7196   7.7593

          k = 0.1667 0.5774 0.0000 (  3000 PWs)   bands (ev):

   -16.2102 -15.2096 -10.6085  -4.1082  -0.8867   7.6163   9.2702   9.3217

          k = 0.2500 0.4330 0.0000 (  3017 PWs)   bands (ev):

   -17.5973 -12.8909 -11.3337  -5.0871   0.4828   6.8551   7.4795   7.8554

          k = 0.2500 0.5292 0.0000 (  3001 PWs)   bands (ev):

   -16.1728 -14.3142 -12.0413  -3.6986  -1.0406   8.5373   8.9596   9.8780

          k = 0.3333 0.5774 0.0000 (  3009 PWs)   bands (ev):

   -14.9538 -14.9532 -12.9425  -2.3410  -2.3399   8.2803  10.5502  10.5514

          k =-0.0833 0.0481 0.0000 (  3046 PWs)   bands (ev):

   -21.7184  -9.7863  -6.0610  -5.7519   1.0864   1.7773   1.9128   2.9176

          k =-0.1667 0.0962 0.0000 (  3046 PWs)   bands (ev):

   -21.2280  -9.2023  -7.6966  -6.5452   1.7577   2.4575   2.5994   3.5957

          k =-0.2500 0.1443 0.0000 (  3038 PWs)   bands (ev):

   -20.4170  -9.7939  -8.2499  -7.4261   2.8741   3.5795   3.7416   4.6672

          k =-0.3333 0.1925 0.0000 (  3034 PWs)   bands (ev):

   -19.2974 -11.9972  -8.1605  -6.9795   2.5804   4.4246   5.1901   5.3460

          k =-0.4167 0.2406 0.0000 (  3050 PWs)   bands (ev):

   -17.9001 -14.0986  -8.6340  -5.5544   0.4408   5.1502   6.4413   7.2040

          k = 0.5000-0.2887 0.0000 (  3036 PWs)   bands (ev):

   -16.6316 -15.6097  -8.7966  -4.7082  -0.6591   5.0727   8.7558   8.9029

          k =-0.0833 0.1443 0.0000 (  3051 PWs)   bands (ev):

   -21.3912  -9.3959  -7.0933  -6.4297   1.5341   2.2308   2.3701   3.3665

          k =-0.0833 0.2406 0.0000 (  3037 PWs)   bands (ev):

   -20.7405  -8.8017  -8.6265  -7.4284   2.4287   3.1354   3.2847   4.2687

          k =-0.1667 0.1925 0.0000 (  3037 PWs)   bands (ev):

   -20.7405  -8.8013  -8.6266  -7.4288   2.4287   3.1353   3.2848   4.2682

          k =-0.0833 0.3368 0.0000 (  3028 PWs)   bands (ev):

   -19.7750 -10.8743  -8.3153  -7.5086   3.5937   3.7663   4.5122   4.6583

          k =-0.2500 0.2406 0.0000 (  3028 PWs)   bands (ev):

   -19.7750 -10.8739  -8.3158  -7.5087   3.5937   3.7664   4.5108   4.6564

          k =-0.0833 0.4330 0.0000 (  3039 PWs)   bands (ev):

   -18.5136 -12.9977  -8.9508  -6.1265   1.3895   5.5215   6.0030   6.2981

          k =-0.3333 0.2887 0.0000 (  3039 PWs)   bands (ev):

   -18.5136 -12.9974  -8.9512  -6.1268   1.3901   5.5226   6.0042   6.2959

          k =-0.0833 0.5292 0.0000 (  3029 PWs)   bands (ev):

   -17.0315 -14.9416  -9.2795  -4.8145  -0.3834   5.8101   7.7445   8.4991

          k =-0.4167 0.3368 0.0000 (  3029 PWs)   bands (ev):

   -17.0316 -14.9412  -9.2799  -4.8152  -0.3820   5.8096   7.7444   8.5000

          k =-0.1667 0.2887 0.0000 (  3021 PWs)   bands (ev):

   -19.9353 -10.1299  -8.7919  -7.6878   3.5454   4.0532   4.2615   4.4285

          k =-0.1667 0.3849 0.0000 (  3030 PWs)   bands (ev):

   -18.8266 -11.8574  -9.8483  -6.4325   2.1009   5.0998   5.8226   6.0285

          k =-0.2500 0.3368 0.0000 (  3030 PWs)   bands (ev):

   -18.8266 -11.8571  -9.8486  -6.4326   2.1014   5.0997   5.8218   6.0283

          k =-0.1667 0.4811 0.0000 (  3031 PWs)   bands (ev):

   -17.4493 -13.7698 -10.4238  -5.0030   0.1844   7.0661   7.7195   7.7586

          k =-0.3333 0.3849 0.0000 (  3031 PWs)   bands (ev):

   -17.4493 -13.7695 -10.4241  -5.0033   0.1849   7.0662   7.7192   7.7572

          k =-0.4167 0.4330 0.0000 (  3000 PWs)   bands (ev):

   -16.2106 -15.2088 -10.6089  -4.1090  -0.8854   7.6158   9.2681   9.3225

          k =-0.2500 0.4330 0.0000 (  3017 PWs)   bands (ev):

   -17.5974 -12.8903 -11.3343  -5.0874   0.4835   6.8551   7.4793   7.8561

          k =-0.2500 0.5292 0.0000 (  3001 PWs)   bands (ev):

   -16.1729 -14.3140 -12.0415  -3.6989  -1.0401   8.5372   8.9592   9.8782

          k =-0.3333 0.4811 0.0000 (  3001 PWs)   bands (ev):

   -16.1730 -14.3136 -12.0417  -3.6993  -1.0396   8.5370   8.9595   9.8798

 ------ SPIN DOWN ----------


          k = 0.0000 0.0000 0.0000 (  3053 PWs)   bands (ev):

   -21.8826  -9.9824  -5.4140  -5.4114   0.8621   1.5495   1.6842   2.6879

          k = 0.0000 0.0962 0.0000 (  3046 PWs)   bands (ev):

   -21.7185  -9.7860  -6.0626  -5.7509   1.0859   1.7764   1.9128   2.9135

          k = 0.0000 0.1925 0.0000 (  3046 PWs)   bands (ev):

   -21.2281  -9.2020  -7.6979  -6.5445   1.7571   2.4571   2.5990   3.5926

          k = 0.0000 0.2887 0.0000 (  3038 PWs)   bands (ev):

   -20.4171  -9.7948  -8.2496  -7.4256   2.8736   3.5793   3.7438   4.6823

          k = 0.0000 0.3849 0.0000 (  3034 PWs)   bands (ev):

   -19.2976 -11.9979  -8.1601  -6.9791   2.5800   4.4240   5.2825   5.3822

          k = 0.0000 0.4811 0.0000 (  3050 PWs)   bands (ev):

   -17.9003 -14.0992  -8.6337  -5.5537   0.4401   5.1505   6.4409   7.2049

          k = 0.0000-0.5774 0.0000 (  3036 PWs)   bands (ev):

   -16.6313 -15.6107  -8.7963  -4.7073  -0.6599   5.0730   8.7554   8.9037

          k = 0.0833 0.1443 0.0000 (  3051 PWs)   bands (ev):

   -21.3913  -9.3957  -7.0949  -6.4286   1.5335   2.2302   2.3718   3.3672

          k = 0.0833 0.2406 0.0000 (  3037 PWs)   bands (ev):

   -20.7406  -8.8026  -8.6263  -7.4279   2.4286   3.1347   3.2848   4.2679

          k = 0.0833 0.3368 0.0000 (  3028 PWs)   bands (ev):

   -19.7752 -10.8748  -8.3152  -7.5084   3.5934   3.7664   4.5097   4.6564

          k = 0.0833 0.4330 0.0000 (  3039 PWs)   bands (ev):

   -18.5138 -12.9981  -8.9508  -6.1263   1.3895   5.5202   6.0012   6.2958

          k = 0.0833 0.5292 0.0000 (  3029 PWs)   bands (ev):

   -17.0316 -14.9419  -9.2796  -4.8143  -0.3832   5.8100   7.7440   8.5032

          k = 0.1667 0.2887 0.0000 (  3021 PWs)   bands (ev):

   -19.9355 -10.1311  -8.7911  -7.6875   3.5448   4.0528   4.2609   4.4292

          k = 0.1667 0.3849 0.0000 (  3030 PWs)   bands (ev):

   -18.8268 -11.8581  -9.8480  -6.4322   2.1009   5.0992   5.8215   6.0289

          k = 0.1667 0.4811 0.0000 (  3031 PWs)   bands (ev):

   -17.4495 -13.7702 -10.4238  -5.0027   0.1843   7.0653   7.7195   7.7566

          k = 0.1667 0.5774 0.0000 (  3000 PWs)   bands (ev):

   -16.2103 -15.2099 -10.6086  -4.1081  -0.8864   7.6160   9.2663   9.3208

          k = 0.2500 0.4330 0.0000 (  3017 PWs)   bands (ev):

   -17.5975 -12.8912 -11.3338  -5.0870   0.4830   6.8549   7.4785   7.8556

          k = 0.2500 0.5292 0.0000 (  3001 PWs)   bands (ev):

   -16.1730 -14.3145 -12.0414  -3.6985  -1.0403   8.5373   8.9598   9.8778

          k = 0.3333 0.5774 0.0000 (  3009 PWs)   bands (ev):

   -14.9540 -14.9533 -12.9427  -2.3407  -2.3399   8.2806  10.5501  10.5505

          k =-0.0833 0.0481 0.0000 (  3046 PWs)   bands (ev):

   -21.7185  -9.7860  -6.0608  -5.7527   1.0858   1.7764   1.9135   2.9144

          k =-0.1667 0.0962 0.0000 (  3046 PWs)   bands (ev):

   -21.2281  -9.2020  -7.6965  -6.5460   1.7573   2.4571   2.5992   3.5927

          k =-0.2500 0.1443 0.0000 (  3038 PWs)   bands (ev):

   -20.4171  -9.7938  -8.2497  -7.4269   2.8736   3.5792   3.7419   4.6835

          k =-0.3333 0.1925 0.0000 (  3034 PWs)   bands (ev):

   -19.2975 -11.9972  -8.1612  -6.9793   2.5805   4.4241   5.1904   5.3571

          k =-0.4167 0.2406 0.0000 (  3050 PWs)   bands (ev):

   -17.9002 -14.0986  -8.6348  -5.5541   0.4409   5.1505   6.4412   7.2058

          k = 0.5000-0.2887 0.0000 (  3036 PWs)   bands (ev):

   -16.6317 -15.6097  -8.7973  -4.7079  -0.6589   5.0729   8.7557   8.9020

          k =-0.0833 0.1443 0.0000 (  3051 PWs)   bands (ev):

   -21.3913  -9.3957  -7.0934  -6.4302   1.5336   2.2300   2.3701   3.3670

          k =-0.0833 0.2406 0.0000 (  3037 PWs)   bands (ev):

   -20.7406  -8.8020  -8.6263  -7.4286   2.4283   3.1351   3.2855   4.2679

          k =-0.1667 0.1925 0.0000 (  3037 PWs)   bands (ev):

   -20.7406  -8.8013  -8.6263  -7.4295   2.4283   3.1346   3.2852   4.2710

          k =-0.0833 0.3368 0.0000 (  3028 PWs)   bands (ev):

   -19.7752 -10.8746  -8.3154  -7.5084   3.5936   3.7657   4.5091   4.6570

          k =-0.2500 0.2406 0.0000 (  3028 PWs)   bands (ev):

   -19.7751 -10.8739  -8.3165  -7.5085   3.5938   3.7659   4.5091   4.6571

          k =-0.0833 0.4330 0.0000 (  3039 PWs)   bands (ev):

   -18.5137 -12.9980  -8.9509  -6.1263   1.3898   5.5203   6.0016   6.3024

          k =-0.3333 0.2887 0.0000 (  3039 PWs)   bands (ev):

   -18.5137 -12.9974  -8.9519  -6.1265   1.3901   5.5201   6.0009   6.2968

          k =-0.0833 0.5292 0.0000 (  3029 PWs)   bands (ev):

   -17.0316 -14.9419  -9.2796  -4.8144  -0.3831   5.8100   7.7438   8.4962

          k =-0.4167 0.3368 0.0000 (  3029 PWs)   bands (ev):

   -17.0317 -14.9412  -9.2806  -4.8149  -0.3822   5.8097   7.7439   8.4976

          k =-0.1667 0.2887 0.0000 (  3021 PWs)   bands (ev):

   -19.9354 -10.1300  -8.7923  -7.6875   3.5449   4.0531   4.2610   4.4286

          k =-0.1667 0.3849 0.0000 (  3030 PWs)   bands (ev):

   -18.8268 -11.8577  -9.8485  -6.4323   2.1011   5.0994   5.8214   6.0303

          k =-0.2500 0.3368 0.0000 (  3030 PWs)   bands (ev):

   -18.8268 -11.8572  -9.8491  -6.4323   2.1011   5.0991   5.8211   6.0302

          k =-0.1667 0.4811 0.0000 (  3031 PWs)   bands (ev):

   -17.4494 -13.7702 -10.4239  -5.0028   0.1844   7.0650   7.7188   7.7553

          k =-0.3333 0.3849 0.0000 (  3031 PWs)   bands (ev):

   -17.4495 -13.7695 -10.4247  -5.0031   0.1850   7.0650   7.7189   7.7578

          k =-0.4167 0.4330 0.0000 (  3000 PWs)   bands (ev):

   -16.2107 -15.2088 -10.6095  -4.1087  -0.8853   7.6157   9.2704   9.3222

          k =-0.2500 0.4330 0.0000 (  3017 PWs)   bands (ev):

   -17.5975 -12.8904 -11.3346  -5.0872   0.4835   6.8548   7.4786   7.8565

          k =-0.2500 0.5292 0.0000 (  3001 PWs)   bands (ev):

   -16.1730 -14.3143 -12.0416  -3.6987  -1.0400   8.5376   8.9593   9.8792

          k =-0.3333 0.4811 0.0000 (  3001 PWs)   bands (ev):

   -16.1731 -14.3137 -12.0422  -3.6990  -1.0396   8.5370   8.9590   9.8778

     the Fermi energy is    -2.3214 ev

!    total energy              =     -23.90891261 Ry
     estimated scf accuracy    <       0.00000006 Ry
     smearing contrib. (-TS)   =      -0.00009116 Ry
     internal energy E=F+TS    =     -23.90882145 Ry

     The total energy is F=E-TS. E is the sum of the following terms:
     one-electron contribution =    -224.64994449 Ry
     hartree contribution      =     113.60306861 Ry
     xc contribution           =      -8.30508328 Ry
     ewald contribution        =      95.44313771 Ry

     total magnetization       =     0.00 Bohr mag/cell
     absolute magnetization    =     0.00 Bohr mag/cell

     convergence has been achieved in   7 iterations

     Writing all to output data dir ./graphene.save/ :
     XML data file, charge density, pseudopotentials, collected wavefunctions
 
     init_run     :      0.82s CPU      1.43s WALL (       1 calls)
     electrons    :     22.58s CPU     25.45s WALL (       1 calls)

     Called by init_run:
     wfcinit      :      0.52s CPU      0.88s WALL (       1 calls)
     potinit      :      0.11s CPU      0.20s WALL (       1 calls)
     hinit0       :      0.11s CPU      0.23s WALL (       1 calls)

     Called by electrons:
     c_bands      :     19.03s CPU     21.50s WALL (       7 calls)
     sum_band     :      2.58s CPU      2.84s WALL (       7 calls)
     v_of_rho     :      0.69s CPU      0.80s WALL (       8 calls)
     newd         :      0.26s CPU      0.27s WALL (       8 calls)
     mix_rho      :      0.07s CPU      0.08s WALL (       7 calls)

     Called by c_bands:
     init_us_2    :      0.24s CPU      0.26s WALL (    1290 calls)
     init_us_2:cp :      0.23s CPU      0.26s WALL (    1290 calls)
     cegterg      :     17.71s CPU     20.08s WALL (     602 calls)

     Called by *egterg:
     cdiaghg      :      0.63s CPU      0.70s WALL (    5887 calls)
     h_psi        :     15.18s CPU     17.61s WALL (    5973 calls)
     s_psi        :      0.17s CPU      0.20s WALL (    5973 calls)
     g_psi        :      0.08s CPU      0.09s WALL (    5285 calls)

     Called by h_psi:
     h_psi:calbec :      0.54s CPU      0.59s WALL (    5973 calls)
     vloc_psi     :     14.34s CPU     16.69s WALL (    5973 calls)
     add_vuspsi   :      0.20s CPU      0.21s WALL (    5973 calls)

     General routines
     calbec       :      0.61s CPU      0.67s WALL (    6575 calls)
     fft          :      0.39s CPU      0.52s WALL (     194 calls)
     ffts         :      0.01s CPU      0.01s WALL (      30 calls)
     fftw         :     12.70s CPU     14.83s WALL (   50922 calls)
     interpolate  :      0.04s CPU      0.04s WALL (      16 calls)
 
     Parallel routines
 
     PWSCF        :     23.60s CPU     27.99s WALL

 
   This run was terminated on:  16:22:49  11Feb2026            

=------------------------------------------------------------------------------=
   JOB DONE.
=------------------------------------------------------------------------------=
